+ 0.1 0 2 ping 50000 ------- 0 0.0 4.0 -1 0
- 0.1 0 2 ping 50000 ------- 0 0.0 4.0 -1 0
+ 0.1 5 3 ping 50000 ------- 0 5.0 1.0 -1 1
- 0.1 5 3 ping 50000 ------- 0 5.0 1.0 -1 1
+ 0.2 0 2 ping 50000 ------- 0 0.0 4.0 -1 2
+ 0.2 5 3 ping 50000 ------- 0 5.0 1.0 -1 3
+ 0.3 0 2 ping 50000 ------- 0 0.0 4.0 -1 4
+ 0.3 5 3 ping 50000 ------- 0 5.0 1.0 -1 5
+ 0.4 0 2 ping 50000 ------- 0 0.0 4.0 -1 6
+ 0.4 5 3 ping 50000 ------- 0 5.0 1.0 -1 7
+ 0.5 0 2 ping 50000 ------- 0 0.0 4.0 -1 8
+ 0.5 5 3 ping 50000 ------- 0 5.0 1.0 -1 9
- 0.5 0 2 ping 50000 ------- 0 0.0 4.0 -1 2
- 0.5 5 3 ping 50000 ------- 0 5.0 1.0 -1 3
r 0.51 0 2 ping 50000 ------- 0 0.0 4.0 -1 0
+ 0.51 2 3 ping 50000 ------- 0 0.0 4.0 -1 0
- 0.51 2 3 ping 50000 ------- 0 0.0 4.0 -1 0
r 0.51 5 3 ping 50000 ------- 0 5.0 1.0 -1 1
+ 0.51 3 2 ping 50000 ------- 0 5.0 1.0 -1 1
- 0.51 3 2 ping 50000 ------- 0 5.0 1.0 -1 1
+ 0.6 0 2 ping 50000 ------- 0 0.0 4.0 -1 10
+ 0.6 5 3 ping 50000 ------- 0 5.0 1.0 -1 11
+ 0.7 0 2 ping 50000 ------- 0 0.0 4.0 -1 12
+ 0.7 5 3 ping 50000 ------- 0 5.0 1.0 -1 13
+ 0.8 0 2 ping 50000 ------- 0 0.0 4.0 -1 14
d 0.8 0 2 ping 50000 ------- 0 0.0 4.0 -1 14
+ 0.8 5 3 ping 50000 ------- 0 5.0 1.0 -1 15
+ 0.9 0 2 ping 50000 ------- 0 0.0 4.0 -1 16
d 0.9 0 2 ping 50000 ------- 0 0.0 4.0 -1 16
+ 0.9 5 3 ping 50000 ------- 0 5.0 1.0 -1 17
- 0.9 0 2 ping 50000 ------- 0 0.0 4.0 -1 4
- 0.9 5 3 ping 50000 ------- 0 5.0 1.0 -1 5
r 0.91 0 2 ping 50000 ------- 0 0.0 4.0 -1 2
+ 0.91 2 3 ping 50000 ------- 0 0.0 4.0 -1 2
r 0.91 5 3 ping 50000 ------- 0 5.0 1.0 -1 3
+ 0.91 3 2 ping 50000 ------- 0 5.0 1.0 -1 3
- 0.91 2 3 ping 50000 ------- 0 0.0 4.0 -1 2
- 0.91 3 2 ping 50000 ------- 0 5.0 1.0 -1 3
r 0.92 2 3 ping 50000 ------- 0 0.0 4.0 -1 0
+ 0.92 3 4 ping 50000 ------- 0 0.0 4.0 -1 0
- 0.92 3 4 ping 50000 ------- 0 0.0 4.0 -1 0
r 0.92 3 2 ping 50000 ------- 0 5.0 1.0 -1 1
+ 0.92 2 1 ping 50000 ------- 0 5.0 1.0 -1 1
- 0.92 2 1 ping 50000 ------- 0 5.0 1.0 -1 1
+ 1 0 2 ping 50000 ------- 0 0.0 4.0 -1 18
+ 1 5 3 ping 50000 ------- 0 5.0 1.0 -1 19
+ 1.1 0 2 ping 50000 ------- 0 0.0 4.0 -1 20
d 1.1 0 2 ping 50000 ------- 0 0.0 4.0 -1 20
+ 1.1 5 3 ping 50000 ------- 0 5.0 1.0 -1 21
+ 1.2 0 2 ping 50000 ------- 0 0.0 4.0 -1 22
d 1.2 0 2 ping 50000 ------- 0 0.0 4.0 -1 22
+ 1.2 5 3 ping 50000 ------- 0 5.0 1.0 -1 23
+ 1.3 0 2 ping 50000 ------- 0 0.0 4.0 -1 24
d 1.3 0 2 ping 50000 ------- 0 0.0 4.0 -1 24
+ 1.3 5 3 ping 50000 ------- 0 5.0 1.0 -1 25
- 1.3 0 2 ping 50000 ------- 0 0.0 4.0 -1 6
- 1.3 5 3 ping 50000 ------- 0 5.0 1.0 -1 7
r 1.31 0 2 ping 50000 ------- 0 0.0 4.0 -1 4
+ 1.31 2 3 ping 50000 ------- 0 0.0 4.0 -1 4
r 1.31 5 3 ping 50000 ------- 0 5.0 1.0 -1 5
+ 1.31 3 2 ping 50000 ------- 0 5.0 1.0 -1 5
- 1.31 2 3 ping 50000 ------- 0 0.0 4.0 -1 4
- 1.31 3 2 ping 50000 ------- 0 5.0 1.0 -1 5
r 1.32 2 3 ping 50000 ------- 0 0.0 4.0 -1 2
+ 1.32 3 4 ping 50000 ------- 0 0.0 4.0 -1 2
r 1.32 3 2 ping 50000 ------- 0 5.0 1.0 -1 3
+ 1.32 2 1 ping 50000 ------- 0 5.0 1.0 -1 3
- 1.32 3 4 ping 50000 ------- 0 0.0 4.0 -1 2
- 1.32 2 1 ping 50000 ------- 0 5.0 1.0 -1 3
r 1.33 3 4 ping 50000 ------- 0 0.0 4.0 -1 0
+ 1.33 4 3 ping 64 ------- 0 4.0 0.0 -1 26
- 1.33 4 3 ping 64 ------- 0 4.0 0.0 -1 26
r 1.33 2 1 ping 50000 ------- 0 5.0 1.0 -1 1
+ 1.33 1 2 ping 64 ------- 0 1.0 5.0 -1 27
- 1.33 1 2 ping 64 ------- 0 1.0 5.0 -1 27
r 1.340512 4 3 ping 64 ------- 0 4.0 0.0 -1 26
+ 1.340512 3 2 ping 64 ------- 0 4.0 0.0 -1 26
r 1.340512 1 2 ping 64 ------- 0 1.0 5.0 -1 27
+ 1.340512 2 3 ping 64 ------- 0 1.0 5.0 -1 27
+ 1.4 0 2 ping 50000 ------- 0 0.0 4.0 -1 28
+ 1.4 5 3 ping 50000 ------- 0 5.0 1.0 -1 29
+ 1.5 0 2 ping 50000 ------- 0 0.0 4.0 -1 30
d 1.5 0 2 ping 50000 ------- 0 0.0 4.0 -1 30
+ 1.5 5 3 ping 50000 ------- 0 5.0 1.0 -1 31
+ 1.6 0 2 ping 50000 ------- 0 0.0 4.0 -1 32
d 1.6 0 2 ping 50000 ------- 0 0.0 4.0 -1 32
+ 1.6 5 3 ping 50000 ------- 0 5.0 1.0 -1 33
+ 1.7 0 2 ping 50000 ------- 0 0.0 4.0 -1 34
d 1.7 0 2 ping 50000 ------- 0 0.0 4.0 -1 34
+ 1.7 5 3 ping 50000 ------- 0 5.0 1.0 -1 35
- 1.7 0 2 ping 50000 ------- 0 0.0 4.0 -1 8
- 1.7 5 3 ping 50000 ------- 0 5.0 1.0 -1 9
r 1.71 0 2 ping 50000 ------- 0 0.0 4.0 -1 6
+ 1.71 2 3 ping 50000 ------- 0 0.0 4.0 -1 6
r 1.71 5 3 ping 50000 ------- 0 5.0 1.0 -1 7
+ 1.71 3 2 ping 50000 ------- 0 5.0 1.0 -1 7
- 1.71 2 3 ping 64 ------- 0 1.0 5.0 -1 27
- 1.71 3 2 ping 64 ------- 0 4.0 0.0 -1 26
- 1.710512 2 3 ping 50000 ------- 0 0.0 4.0 -1 6
- 1.710512 3 2 ping 50000 ------- 0 5.0 1.0 -1 7
r 1.72 2 3 ping 50000 ------- 0 0.0 4.0 -1 4
+ 1.72 3 4 ping 50000 ------- 0 0.0 4.0 -1 4
r 1.72 3 2 ping 50000 ------- 0 5.0 1.0 -1 5
+ 1.72 2 1 ping 50000 ------- 0 5.0 1.0 -1 5
- 1.72 3 4 ping 50000 ------- 0 0.0 4.0 -1 4
- 1.72 2 1 ping 50000 ------- 0 5.0 1.0 -1 5
r 1.720512 2 3 ping 64 ------- 0 1.0 5.0 -1 27
+ 1.720512 3 5 ping 64 ------- 0 1.0 5.0 -1 27
- 1.720512 3 5 ping 64 ------- 0 1.0 5.0 -1 27
r 1.720512 3 2 ping 64 ------- 0 4.0 0.0 -1 26
+ 1.720512 2 0 ping 64 ------- 0 4.0 0.0 -1 26
- 1.720512 2 0 ping 64 ------- 0 4.0 0.0 -1 26
r 1.73 3 4 ping 50000 ------- 0 0.0 4.0 -1 2
+ 1.73 4 3 ping 64 ------- 0 4.0 0.0 -1 36
- 1.73 4 3 ping 64 ------- 0 4.0 0.0 -1 36
r 1.73 2 1 ping 50000 ------- 0 5.0 1.0 -1 3
+ 1.73 1 2 ping 64 ------- 0 1.0 5.0 -1 37
- 1.73 1 2 ping 64 ------- 0 1.0 5.0 -1 37
r 1.731024 3 5 ping 64 ------- 0 1.0 5.0 -1 27
r 1.731024 2 0 ping 64 ------- 0 4.0 0.0 -1 26
r 1.740512 4 3 ping 64 ------- 0 4.0 0.0 -1 36
+ 1.740512 3 2 ping 64 ------- 0 4.0 0.0 -1 36
r 1.740512 1 2 ping 64 ------- 0 1.0 5.0 -1 37
+ 1.740512 2 3 ping 64 ------- 0 1.0 5.0 -1 37
+ 1.8 0 2 ping 50000 ------- 0 0.0 4.0 -1 38
+ 1.8 5 3 ping 50000 ------- 0 5.0 1.0 -1 39
+ 1.9 0 2 ping 50000 ------- 0 0.0 4.0 -1 40
d 1.9 0 2 ping 50000 ------- 0 0.0 4.0 -1 40
+ 1.9 5 3 ping 50000 ------- 0 5.0 1.0 -1 41
+ 2 0 2 ping 50000 ------- 0 0.0 4.0 -1 42
d 2 0 2 ping 50000 ------- 0 0.0 4.0 -1 42
+ 2 5 3 ping 50000 ------- 0 5.0 1.0 -1 43
+ 2.1 0 2 ping 50000 ------- 0 0.0 4.0 -1 44
d 2.1 0 2 ping 50000 ------- 0 0.0 4.0 -1 44
+ 2.1 5 3 ping 50000 ------- 0 5.0 1.0 -1 45
- 2.1 0 2 ping 50000 ------- 0 0.0 4.0 -1 10
- 2.1 5 3 ping 50000 ------- 0 5.0 1.0 -1 11
r 2.11 0 2 ping 50000 ------- 0 0.0 4.0 -1 8
+ 2.11 2 3 ping 50000 ------- 0 0.0 4.0 -1 8
r 2.11 5 3 ping 50000 ------- 0 5.0 1.0 -1 9
+ 2.11 3 2 ping 50000 ------- 0 5.0 1.0 -1 9
- 2.110512 2 3 ping 64 ------- 0 1.0 5.0 -1 37
- 2.110512 3 2 ping 64 ------- 0 4.0 0.0 -1 36
- 2.111024 2 3 ping 50000 ------- 0 0.0 4.0 -1 8
- 2.111024 3 2 ping 50000 ------- 0 5.0 1.0 -1 9
r 2.120512 2 3 ping 50000 ------- 0 0.0 4.0 -1 6
+ 2.120512 3 4 ping 50000 ------- 0 0.0 4.0 -1 6
- 2.120512 3 4 ping 50000 ------- 0 0.0 4.0 -1 6
r 2.120512 3 2 ping 50000 ------- 0 5.0 1.0 -1 7
+ 2.120512 2 1 ping 50000 ------- 0 5.0 1.0 -1 7
- 2.120512 2 1 ping 50000 ------- 0 5.0 1.0 -1 7
r 2.121024 2 3 ping 64 ------- 0 1.0 5.0 -1 37
+ 2.121024 3 5 ping 64 ------- 0 1.0 5.0 -1 37
- 2.121024 3 5 ping 64 ------- 0 1.0 5.0 -1 37
r 2.121024 3 2 ping 64 ------- 0 4.0 0.0 -1 36
+ 2.121024 2 0 ping 64 ------- 0 4.0 0.0 -1 36
- 2.121024 2 0 ping 64 ------- 0 4.0 0.0 -1 36
r 2.13 3 4 ping 50000 ------- 0 0.0 4.0 -1 4
+ 2.13 4 3 ping 64 ------- 0 4.0 0.0 -1 46
- 2.13 4 3 ping 64 ------- 0 4.0 0.0 -1 46
r 2.13 2 1 ping 50000 ------- 0 5.0 1.0 -1 5
+ 2.13 1 2 ping 64 ------- 0 1.0 5.0 -1 47
- 2.13 1 2 ping 64 ------- 0 1.0 5.0 -1 47
r 2.131536 3 5 ping 64 ------- 0 1.0 5.0 -1 37
r 2.131536 2 0 ping 64 ------- 0 4.0 0.0 -1 36
r 2.140512 4 3 ping 64 ------- 0 4.0 0.0 -1 46
+ 2.140512 3 2 ping 64 ------- 0 4.0 0.0 -1 46
r 2.140512 1 2 ping 64 ------- 0 1.0 5.0 -1 47
+ 2.140512 2 3 ping 64 ------- 0 1.0 5.0 -1 47
+ 2.2 0 2 ping 50000 ------- 0 0.0 4.0 -1 48
+ 2.2 5 3 ping 50000 ------- 0 5.0 1.0 -1 49
+ 2.3 0 2 ping 50000 ------- 0 0.0 4.0 -1 50
d 2.3 0 2 ping 50000 ------- 0 0.0 4.0 -1 50
+ 2.3 5 3 ping 50000 ------- 0 5.0 1.0 -1 51
+ 2.4 0 2 ping 50000 ------- 0 0.0 4.0 -1 52
d 2.4 0 2 ping 50000 ------- 0 0.0 4.0 -1 52
+ 2.4 5 3 ping 50000 ------- 0 5.0 1.0 -1 53
+ 2.5 0 2 ping 50000 ------- 0 0.0 4.0 -1 54
d 2.5 0 2 ping 50000 ------- 0 0.0 4.0 -1 54
+ 2.5 5 3 ping 50000 ------- 0 5.0 1.0 -1 55
- 2.5 0 2 ping 50000 ------- 0 0.0 4.0 -1 12
- 2.5 5 3 ping 50000 ------- 0 5.0 1.0 -1 13
r 2.51 0 2 ping 50000 ------- 0 0.0 4.0 -1 10
+ 2.51 2 3 ping 50000 ------- 0 0.0 4.0 -1 10
r 2.51 5 3 ping 50000 ------- 0 5.0 1.0 -1 11
+ 2.51 3 2 ping 50000 ------- 0 5.0 1.0 -1 11
- 2.511024 2 3 ping 64 ------- 0 1.0 5.0 -1 47
- 2.511024 3 2 ping 64 ------- 0 4.0 0.0 -1 46
- 2.511536 2 3 ping 50000 ------- 0 0.0 4.0 -1 10
- 2.511536 3 2 ping 50000 ------- 0 5.0 1.0 -1 11
r 2.521024 2 3 ping 50000 ------- 0 0.0 4.0 -1 8
+ 2.521024 3 4 ping 50000 ------- 0 0.0 4.0 -1 8
- 2.521024 3 4 ping 50000 ------- 0 0.0 4.0 -1 8
r 2.521024 3 2 ping 50000 ------- 0 5.0 1.0 -1 9
+ 2.521024 2 1 ping 50000 ------- 0 5.0 1.0 -1 9
- 2.521024 2 1 ping 50000 ------- 0 5.0 1.0 -1 9
r 2.521536 2 3 ping 64 ------- 0 1.0 5.0 -1 47
+ 2.521536 3 5 ping 64 ------- 0 1.0 5.0 -1 47
- 2.521536 3 5 ping 64 ------- 0 1.0 5.0 -1 47
r 2.521536 3 2 ping 64 ------- 0 4.0 0.0 -1 46
+ 2.521536 2 0 ping 64 ------- 0 4.0 0.0 -1 46
- 2.521536 2 0 ping 64 ------- 0 4.0 0.0 -1 46
r 2.530512 3 4 ping 50000 ------- 0 0.0 4.0 -1 6
+ 2.530512 4 3 ping 64 ------- 0 4.0 0.0 -1 56
- 2.530512 4 3 ping 64 ------- 0 4.0 0.0 -1 56
r 2.530512 2 1 ping 50000 ------- 0 5.0 1.0 -1 7
+ 2.530512 1 2 ping 64 ------- 0 1.0 5.0 -1 57
- 2.530512 1 2 ping 64 ------- 0 1.0 5.0 -1 57
r 2.532048 3 5 ping 64 ------- 0 1.0 5.0 -1 47
r 2.532048 2 0 ping 64 ------- 0 4.0 0.0 -1 46
r 2.541024 4 3 ping 64 ------- 0 4.0 0.0 -1 56
+ 2.541024 3 2 ping 64 ------- 0 4.0 0.0 -1 56
r 2.541024 1 2 ping 64 ------- 0 1.0 5.0 -1 57
+ 2.541024 2 3 ping 64 ------- 0 1.0 5.0 -1 57
+ 2.6 0 2 ping 50000 ------- 0 0.0 4.0 -1 58
+ 2.6 5 3 ping 50000 ------- 0 5.0 1.0 -1 59
+ 2.7 0 2 ping 50000 ------- 0 0.0 4.0 -1 60
d 2.7 0 2 ping 50000 ------- 0 0.0 4.0 -1 60
+ 2.7 5 3 ping 50000 ------- 0 5.0 1.0 -1 61
+ 2.8 0 2 ping 50000 ------- 0 0.0 4.0 -1 62
d 2.8 0 2 ping 50000 ------- 0 0.0 4.0 -1 62
+ 2.8 5 3 ping 50000 ------- 0 5.0 1.0 -1 63
+ 2.9 0 2 ping 50000 ------- 0 0.0 4.0 -1 64
d 2.9 0 2 ping 50000 ------- 0 0.0 4.0 -1 64
+ 2.9 5 3 ping 50000 ------- 0 5.0 1.0 -1 65
- 2.9 0 2 ping 50000 ------- 0 0.0 4.0 -1 18
- 2.9 5 3 ping 50000 ------- 0 5.0 1.0 -1 15
r 2.91 0 2 ping 50000 ------- 0 0.0 4.0 -1 12
+ 2.91 2 3 ping 50000 ------- 0 0.0 4.0 -1 12
r 2.91 5 3 ping 50000 ------- 0 5.0 1.0 -1 13
+ 2.91 3 2 ping 50000 ------- 0 5.0 1.0 -1 13
- 2.911536 2 3 ping 64 ------- 0 1.0 5.0 -1 57
- 2.911536 3 2 ping 64 ------- 0 4.0 0.0 -1 56
- 2.912048 2 3 ping 50000 ------- 0 0.0 4.0 -1 12
- 2.912048 3 2 ping 50000 ------- 0 5.0 1.0 -1 13
r 2.921536 2 3 ping 50000 ------- 0 0.0 4.0 -1 10
+ 2.921536 3 4 ping 50000 ------- 0 0.0 4.0 -1 10
- 2.921536 3 4 ping 50000 ------- 0 0.0 4.0 -1 10
r 2.921536 3 2 ping 50000 ------- 0 5.0 1.0 -1 11
+ 2.921536 2 1 ping 50000 ------- 0 5.0 1.0 -1 11
- 2.921536 2 1 ping 50000 ------- 0 5.0 1.0 -1 11
r 2.922048 2 3 ping 64 ------- 0 1.0 5.0 -1 57
+ 2.922048 3 5 ping 64 ------- 0 1.0 5.0 -1 57
- 2.922048 3 5 ping 64 ------- 0 1.0 5.0 -1 57
r 2.922048 3 2 ping 64 ------- 0 4.0 0.0 -1 56
+ 2.922048 2 0 ping 64 ------- 0 4.0 0.0 -1 56
- 2.922048 2 0 ping 64 ------- 0 4.0 0.0 -1 56
r 2.931024 3 4 ping 50000 ------- 0 0.0 4.0 -1 8
+ 2.931024 4 3 ping 64 ------- 0 4.0 0.0 -1 66
- 2.931024 4 3 ping 64 ------- 0 4.0 0.0 -1 66
r 2.931024 2 1 ping 50000 ------- 0 5.0 1.0 -1 9
+ 2.931024 1 2 ping 64 ------- 0 1.0 5.0 -1 67
- 2.931024 1 2 ping 64 ------- 0 1.0 5.0 -1 67
r 2.93256 3 5 ping 64 ------- 0 1.0 5.0 -1 57
r 2.93256 2 0 ping 64 ------- 0 4.0 0.0 -1 56
r 2.941536 4 3 ping 64 ------- 0 4.0 0.0 -1 66
+ 2.941536 3 2 ping 64 ------- 0 4.0 0.0 -1 66
r 2.941536 1 2 ping 64 ------- 0 1.0 5.0 -1 67
+ 2.941536 2 3 ping 64 ------- 0 1.0 5.0 -1 67
