V -t * -v 1.0a5 -a 0
A -t * -n 1 -p 0 -o 0x7fffffff -c 30 -a 1
A -t * -h 1 -m 1073741823 -s 0
n -t * -a 0 -s 0 -S UP -v circle -c black -i black
n -t * -a 1 -s 1 -S UP -v circle -c black -i black
n -t * -a 2 -s 2 -S UP -v circle -c black -i black
l -t * -s 0 -d 1 -S UP -r 350000 -D 0.002 -c black
l -t * -s 1 -d 2 -S UP -r 55000 -D 0.001 -c black
+ -t 0.1 -s 0 -d 1 -p cbr -e 500 -c 0 -i 0 -a 0 -x {0.0 2.0 0 ------- null}
- -t 0.1 -s 0 -d 1 -p cbr -e 500 -c 0 -i 0 -a 0 -x {0.0 2.0 0 ------- null}
h -t 0.1 -s 0 -d 1 -p cbr -e 500 -c 0 -i 0 -a 0 -x {0.0 2.0 -1 ------- null}
+ -t 0.105 -s 0 -d 1 -p cbr -e 500 -c 0 -i 1 -a 0 -x {0.0 2.0 1 ------- null}
+ -t 0.11 -s 0 -d 1 -p cbr -e 500 -c 0 -i 2 -a 0 -x {0.0 2.0 2 ------- null}
- -t 0.111428571428571 -s 0 -d 1 -p cbr -e 500 -c 0 -i 1 -a 0 -x {0.0 2.0 1 ------- null}
h -t 0.111428571428571 -s 0 -d 1 -p cbr -e 500 -c 0 -i 1 -a 0 -x {0.0 2.0 -1 ------- null}
r -t 0.113428571428571 -s 0 -d 1 -p cbr -e 500 -c 0 -i 0 -a 0 -x {0.0 2.0 0 ------- null}
+ -t 0.113428571428571 -s 1 -d 2 -p cbr -e 500 -c 0 -i 0 -a 0 -x {0.0 2.0 0 ------- null}
- -t 0.113428571428571 -s 1 -d 2 -p cbr -e 500 -c 0 -i 0 -a 0 -x {0.0 2.0 0 ------- null}
h -t 0.113428571428571 -s 1 -d 2 -p cbr -e 500 -c 0 -i 0 -a 0 -x {0.0 2.0 -1 ------- null}
+ -t 0.115 -s 0 -d 1 -p cbr -e 500 -c 0 -i 3 -a 0 -x {0.0 2.0 3 ------- null}
+ -t 0.12 -s 0 -d 1 -p cbr -e 500 -c 0 -i 4 -a 0 -x {0.0 2.0 4 ------- null}
- -t 0.122857142857143 -s 0 -d 1 -p cbr -e 500 -c 0 -i 2 -a 0 -x {0.0 2.0 2 ------- null}
h -t 0.122857142857143 -s 0 -d 1 -p cbr -e 500 -c 0 -i 2 -a 0 -x {0.0 2.0 -1 ------- null}
r -t 0.124857142857143 -s 0 -d 1 -p cbr -e 500 -c 0 -i 1 -a 0 -x {0.0 2.0 1 ------- null}
+ -t 0.124857142857143 -s 1 -d 2 -p cbr -e 500 -c 0 -i 1 -a 0 -x {0.0 2.0 1 ------- null}
+ -t 0.125 -s 0 -d 1 -p cbr -e 500 -c 0 -i 5 -a 0 -x {0.0 2.0 5 ------- null}
+ -t 0.13 -s 0 -d 1 -p cbr -e 500 -c 0 -i 6 -a 0 -x {0.0 2.0 6 ------- null}
- -t 0.134285714285714 -s 0 -d 1 -p cbr -e 500 -c 0 -i 3 -a 0 -x {0.0 2.0 3 ------- null}
h -t 0.134285714285714 -s 0 -d 1 -p cbr -e 500 -c 0 -i 3 -a 0 -x {0.0 2.0 -1 ------- null}
+ -t 0.135 -s 0 -d 1 -p cbr -e 500 -c 0 -i 7 -a 0 -x {0.0 2.0 7 ------- null}
r -t 0.136285714285714 -s 0 -d 1 -p cbr -e 500 -c 0 -i 2 -a 0 -x {0.0 2.0 2 ------- null}
+ -t 0.136285714285714 -s 1 -d 2 -p cbr -e 500 -c 0 -i 2 -a 0 -x {0.0 2.0 2 ------- null}
+ -t 0.14 -s 0 -d 1 -p cbr -e 500 -c 0 -i 8 -a 0 -x {0.0 2.0 8 ------- null}
d -t 0.14 -s 0 -d 1 -p cbr -e 500 -c 0 -i 8 -a 0 -x {0.0 2.0 8 ------- null}
+ -t 0.145 -s 0 -d 1 -p cbr -e 500 -c 0 -i 9 -a 0 -x {0.0 2.0 9 ------- null}
d -t 0.145 -s 0 -d 1 -p cbr -e 500 -c 0 -i 9 -a 0 -x {0.0 2.0 9 ------- null}
- -t 0.145714285714286 -s 0 -d 1 -p cbr -e 500 -c 0 -i 4 -a 0 -x {0.0 2.0 4 ------- null}
h -t 0.145714285714286 -s 0 -d 1 -p cbr -e 500 -c 0 -i 4 -a 0 -x {0.0 2.0 -1 ------- null}
r -t 0.147714285714286 -s 0 -d 1 -p cbr -e 500 -c 0 -i 3 -a 0 -x {0.0 2.0 3 ------- null}
+ -t 0.147714285714286 -s 1 -d 2 -p cbr -e 500 -c 0 -i 3 -a 0 -x {0.0 2.0 3 ------- null}
+ -t 0.15 -s 0 -d 1 -p cbr -e 500 -c 0 -i 10 -a 0 -x {0.0 2.0 10 ------- null}
+ -t 0.155 -s 0 -d 1 -p cbr -e 500 -c 0 -i 11 -a 0 -x {0.0 2.0 11 ------- null}
d -t 0.155 -s 0 -d 1 -p cbr -e 500 -c 0 -i 11 -a 0 -x {0.0 2.0 11 ------- null}
- -t 0.157142857142857 -s 0 -d 1 -p cbr -e 500 -c 0 -i 5 -a 0 -x {0.0 2.0 5 ------- null}
h -t 0.157142857142857 -s 0 -d 1 -p cbr -e 500 -c 0 -i 5 -a 0 -x {0.0 2.0 -1 ------- null}
r -t 0.159142857142857 -s 0 -d 1 -p cbr -e 500 -c 0 -i 4 -a 0 -x {0.0 2.0 4 ------- null}
+ -t 0.159142857142857 -s 1 -d 2 -p cbr -e 500 -c 0 -i 4 -a 0 -x {0.0 2.0 4 ------- null}
+ -t 0.16 -s 0 -d 1 -p cbr -e 500 -c 0 -i 12 -a 0 -x {0.0 2.0 12 ------- null}
+ -t 0.165 -s 0 -d 1 -p cbr -e 500 -c 0 -i 13 -a 0 -x {0.0 2.0 13 ------- null}
d -t 0.165 -s 0 -d 1 -p cbr -e 500 -c 0 -i 13 -a 0 -x {0.0 2.0 13 ------- null}
- -t 0.168571428571429 -s 0 -d 1 -p cbr -e 500 -c 0 -i 6 -a 0 -x {0.0 2.0 6 ------- null}
h -t 0.168571428571429 -s 0 -d 1 -p cbr -e 500 -c 0 -i 6 -a 0 -x {0.0 2.0 -1 ------- null}
+ -t 0.17 -s 0 -d 1 -p cbr -e 500 -c 0 -i 14 -a 0 -x {0.0 2.0 14 ------- null}
r -t 0.170571428571429 -s 0 -d 1 -p cbr -e 500 -c 0 -i 5 -a 0 -x {0.0 2.0 5 ------- null}
+ -t 0.170571428571429 -s 1 -d 2 -p cbr -e 500 -c 0 -i 5 -a 0 -x {0.0 2.0 5 ------- null}
+ -t 0.175 -s 0 -d 1 -p cbr -e 500 -c 0 -i 15 -a 0 -x {0.0 2.0 15 ------- null}
d -t 0.175 -s 0 -d 1 -p cbr -e 500 -c 0 -i 15 -a 0 -x {0.0 2.0 15 ------- null}
- -t 0.18 -s 0 -d 1 -p cbr -e 500 -c 0 -i 7 -a 0 -x {0.0 2.0 7 ------- null}
h -t 0.18 -s 0 -d 1 -p cbr -e 500 -c 0 -i 7 -a 0 -x {0.0 2.0 -1 ------- null}
+ -t 0.18 -s 0 -d 1 -p cbr -e 500 -c 0 -i 16 -a 0 -x {0.0 2.0 16 ------- null}
r -t 0.182 -s 0 -d 1 -p cbr -e 500 -c 0 -i 6 -a 0 -x {0.0 2.0 6 ------- null}
+ -t 0.182 -s 1 -d 2 -p cbr -e 500 -c 0 -i 6 -a 0 -x {0.0 2.0 6 ------- null}
+ -t 0.185 -s 0 -d 1 -p cbr -e 500 -c 0 -i 17 -a 0 -x {0.0 2.0 17 ------- null}
d -t 0.185 -s 0 -d 1 -p cbr -e 500 -c 0 -i 17 -a 0 -x {0.0 2.0 17 ------- null}
- -t 0.186155844155844 -s 1 -d 2 -p cbr -e 500 -c 0 -i 1 -a 0 -x {0.0 2.0 1 ------- null}
h -t 0.186155844155844 -s 1 -d 2 -p cbr -e 500 -c 0 -i 1 -a 0 -x {0.0 2.0 -1 ------- null}
r -t 0.187155844155844 -s 1 -d 2 -p cbr -e 500 -c 0 -i 0 -a 0 -x {0.0 2.0 0 ------- null}
+ -t 0.19 -s 0 -d 1 -p cbr -e 500 -c 0 -i 18 -a 0 -x {0.0 2.0 18 ------- null}
d -t 0.19 -s 0 -d 1 -p cbr -e 500 -c 0 -i 18 -a 0 -x {0.0 2.0 18 ------- null}
- -t 0.191428571428571 -s 0 -d 1 -p cbr -e 500 -c 0 -i 10 -a 0 -x {0.0 2.0 10 ------- null}
h -t 0.191428571428571 -s 0 -d 1 -p cbr -e 500 -c 0 -i 10 -a 0 -x {0.0 2.0 -1 ------- null}
r -t 0.193428571428571 -s 0 -d 1 -p cbr -e 500 -c 0 -i 7 -a 0 -x {0.0 2.0 7 ------- null}
+ -t 0.193428571428571 -s 1 -d 2 -p cbr -e 500 -c 0 -i 7 -a 0 -x {0.0 2.0 7 ------- null}
+ -t 0.195 -s 0 -d 1 -p cbr -e 500 -c 0 -i 19 -a 0 -x {0.0 2.0 19 ------- null}
+ -t 0.2 -s 0 -d 1 -p cbr -e 500 -c 0 -i 20 -a 0 -x {0.0 2.0 20 ------- null}
d -t 0.2 -s 0 -d 1 -p cbr -e 500 -c 0 -i 20 -a 0 -x {0.0 2.0 20 ------- null}
- -t 0.202857142857143 -s 0 -d 1 -p cbr -e 500 -c 0 -i 12 -a 0 -x {0.0 2.0 12 ------- null}
h -t 0.202857142857143 -s 0 -d 1 -p cbr -e 500 -c 0 -i 12 -a 0 -x {0.0 2.0 -1 ------- null}
r -t 0.204857142857143 -s 0 -d 1 -p cbr -e 500 -c 0 -i 10 -a 0 -x {0.0 2.0 10 ------- null}
+ -t 0.204857142857143 -s 1 -d 2 -p cbr -e 500 -c 0 -i 10 -a 0 -x {0.0 2.0 10 ------- null}
+ -t 0.205 -s 0 -d 1 -p cbr -e 500 -c 0 -i 21 -a 0 -x {0.0 2.0 21 ------- null}
+ -t 0.21 -s 0 -d 1 -p cbr -e 500 -c 0 -i 22 -a 0 -x {0.0 2.0 22 ------- null}
d -t 0.21 -s 0 -d 1 -p cbr -e 500 -c 0 -i 22 -a 0 -x {0.0 2.0 22 ------- null}
- -t 0.214285714285714 -s 0 -d 1 -p cbr -e 500 -c 0 -i 14 -a 0 -x {0.0 2.0 14 ------- null}
h -t 0.214285714285714 -s 0 -d 1 -p cbr -e 500 -c 0 -i 14 -a 0 -x {0.0 2.0 -1 ------- null}
+ -t 0.215 -s 0 -d 1 -p cbr -e 500 -c 0 -i 23 -a 0 -x {0.0 2.0 23 ------- null}
r -t 0.216285714285714 -s 0 -d 1 -p cbr -e 500 -c 0 -i 12 -a 0 -x {0.0 2.0 12 ------- null}
+ -t 0.216285714285714 -s 1 -d 2 -p cbr -e 500 -c 0 -i 12 -a 0 -x {0.0 2.0 12 ------- null}
+ -t 0.22 -s 0 -d 1 -p cbr -e 500 -c 0 -i 24 -a 0 -x {0.0 2.0 24 ------- null}
d -t 0.22 -s 0 -d 1 -p cbr -e 500 -c 0 -i 24 -a 0 -x {0.0 2.0 24 ------- null}
+ -t 0.225 -s 0 -d 1 -p cbr -e 500 -c 0 -i 25 -a 0 -x {0.0 2.0 25 ------- null}
d -t 0.225 -s 0 -d 1 -p cbr -e 500 -c 0 -i 25 -a 0 -x {0.0 2.0 25 ------- null}
- -t 0.225714285714286 -s 0 -d 1 -p cbr -e 500 -c 0 -i 16 -a 0 -x {0.0 2.0 16 ------- null}
h -t 0.225714285714286 -s 0 -d 1 -p cbr -e 500 -c 0 -i 16 -a 0 -x {0.0 2.0 -1 ------- null}
r -t 0.227714285714286 -s 0 -d 1 -p cbr -e 500 -c 0 -i 14 -a 0 -x {0.0 2.0 14 ------- null}
+ -t 0.227714285714286 -s 1 -d 2 -p cbr -e 500 -c 0 -i 14 -a 0 -x {0.0 2.0 14 ------- null}
+ -t 0.23 -s 0 -d 1 -p cbr -e 500 -c 0 -i 26 -a 0 -x {0.0 2.0 26 ------- null}
+ -t 0.235 -s 0 -d 1 -p cbr -e 500 -c 0 -i 27 -a 0 -x {0.0 2.0 27 ------- null}
d -t 0.235 -s 0 -d 1 -p cbr -e 500 -c 0 -i 27 -a 0 -x {0.0 2.0 27 ------- null}
- -t 0.237142857142857 -s 0 -d 1 -p cbr -e 500 -c 0 -i 19 -a 0 -x {0.0 2.0 19 ------- null}
h -t 0.237142857142857 -s 0 -d 1 -p cbr -e 500 -c 0 -i 19 -a 0 -x {0.0 2.0 -1 ------- null}
r -t 0.239142857142857 -s 0 -d 1 -p cbr -e 500 -c 0 -i 16 -a 0 -x {0.0 2.0 16 ------- null}
+ -t 0.239142857142857 -s 1 -d 2 -p cbr -e 500 -c 0 -i 16 -a 0 -x {0.0 2.0 16 ------- null}
+ -t 0.24 -s 0 -d 1 -p cbr -e 500 -c 0 -i 28 -a 0 -x {0.0 2.0 28 ------- null}
+ -t 0.245 -s 0 -d 1 -p cbr -e 500 -c 0 -i 29 -a 0 -x {0.0 2.0 29 ------- null}
d -t 0.245 -s 0 -d 1 -p cbr -e 500 -c 0 -i 29 -a 0 -x {0.0 2.0 29 ------- null}
- -t 0.248571428571429 -s 0 -d 1 -p cbr -e 500 -c 0 -i 21 -a 0 -x {0.0 2.0 21 ------- null}
h -t 0.248571428571429 -s 0 -d 1 -p cbr -e 500 -c 0 -i 21 -a 0 -x {0.0 2.0 -1 ------- null}
+ -t 0.25 -s 0 -d 1 -p cbr -e 500 -c 0 -i 30 -a 0 -x {0.0 2.0 30 ------- null}
r -t 0.250571428571429 -s 0 -d 1 -p cbr -e 500 -c 0 -i 19 -a 0 -x {0.0 2.0 19 ------- null}
+ -t 0.250571428571429 -s 1 -d 2 -p cbr -e 500 -c 0 -i 19 -a 0 -x {0.0 2.0 19 ------- null}
+ -t 0.255 -s 0 -d 1 -p cbr -e 500 -c 0 -i 31 -a 0 -x {0.0 2.0 31 ------- null}
d -t 0.255 -s 0 -d 1 -p cbr -e 500 -c 0 -i 31 -a 0 -x {0.0 2.0 31 ------- null}
- -t 0.258883116883117 -s 1 -d 2 -p cbr -e 500 -c 0 -i 2 -a 0 -x {0.0 2.0 2 ------- null}
h -t 0.258883116883117 -s 1 -d 2 -p cbr -e 500 -c 0 -i 2 -a 0 -x {0.0 2.0 -1 ------- null}
r -t 0.259883116883117 -s 1 -d 2 -p cbr -e 500 -c 0 -i 1 -a 0 -x {0.0 2.0 1 ------- null}
- -t 0.26 -s 0 -d 1 -p cbr -e 500 -c 0 -i 23 -a 0 -x {0.0 2.0 23 ------- null}
h -t 0.26 -s 0 -d 1 -p cbr -e 500 -c 0 -i 23 -a 0 -x {0.0 2.0 -1 ------- null}
+ -t 0.26 -s 0 -d 1 -p cbr -e 500 -c 0 -i 32 -a 0 -x {0.0 2.0 32 ------- null}
r -t 0.262 -s 0 -d 1 -p cbr -e 500 -c 0 -i 21 -a 0 -x {0.0 2.0 21 ------- null}
+ -t 0.262 -s 1 -d 2 -p cbr -e 500 -c 0 -i 21 -a 0 -x {0.0 2.0 21 ------- null}
+ -t 0.265 -s 0 -d 1 -p cbr -e 500 -c 0 -i 33 -a 0 -x {0.0 2.0 33 ------- null}
d -t 0.265 -s 0 -d 1 -p cbr -e 500 -c 0 -i 33 -a 0 -x {0.0 2.0 33 ------- null}
+ -t 0.27 -s 0 -d 1 -p cbr -e 500 -c 0 -i 34 -a 0 -x {0.0 2.0 34 ------- null}
d -t 0.27 -s 0 -d 1 -p cbr -e 500 -c 0 -i 34 -a 0 -x {0.0 2.0 34 ------- null}
- -t 0.271428571428571 -s 0 -d 1 -p cbr -e 500 -c 0 -i 26 -a 0 -x {0.0 2.0 26 ------- null}
h -t 0.271428571428571 -s 0 -d 1 -p cbr -e 500 -c 0 -i 26 -a 0 -x {0.0 2.0 -1 ------- null}
r -t 0.273428571428571 -s 0 -d 1 -p cbr -e 500 -c 0 -i 23 -a 0 -x {0.0 2.0 23 ------- null}
+ -t 0.273428571428571 -s 1 -d 2 -p cbr -e 500 -c 0 -i 23 -a 0 -x {0.0 2.0 23 ------- null}
+ -t 0.275 -s 0 -d 1 -p cbr -e 500 -c 0 -i 35 -a 0 -x {0.0 2.0 35 ------- null}
+ -t 0.28 -s 0 -d 1 -p cbr -e 500 -c 0 -i 36 -a 0 -x {0.0 2.0 36 ------- null}
d -t 0.28 -s 0 -d 1 -p cbr -e 500 -c 0 -i 36 -a 0 -x {0.0 2.0 36 ------- null}
- -t 0.282857142857143 -s 0 -d 1 -p cbr -e 500 -c 0 -i 28 -a 0 -x {0.0 2.0 28 ------- null}
h -t 0.282857142857143 -s 0 -d 1 -p cbr -e 500 -c 0 -i 28 -a 0 -x {0.0 2.0 -1 ------- null}
r -t 0.284857142857143 -s 0 -d 1 -p cbr -e 500 -c 0 -i 26 -a 0 -x {0.0 2.0 26 ------- null}
+ -t 0.284857142857143 -s 1 -d 2 -p cbr -e 500 -c 0 -i 26 -a 0 -x {0.0 2.0 26 ------- null}
+ -t 0.285 -s 0 -d 1 -p cbr -e 500 -c 0 -i 37 -a 0 -x {0.0 2.0 37 ------- null}
+ -t 0.29 -s 0 -d 1 -p cbr -e 500 -c 0 -i 38 -a 0 -x {0.0 2.0 38 ------- null}
d -t 0.29 -s 0 -d 1 -p cbr -e 500 -c 0 -i 38 -a 0 -x {0.0 2.0 38 ------- null}
- -t 0.294285714285714 -s 0 -d 1 -p cbr -e 500 -c 0 -i 30 -a 0 -x {0.0 2.0 30 ------- null}
h -t 0.294285714285714 -s 0 -d 1 -p cbr -e 500 -c 0 -i 30 -a 0 -x {0.0 2.0 -1 ------- null}
+ -t 0.295 -s 0 -d 1 -p cbr -e 500 -c 0 -i 39 -a 0 -x {0.0 2.0 39 ------- null}
r -t 0.296285714285714 -s 0 -d 1 -p cbr -e 500 -c 0 -i 28 -a 0 -x {0.0 2.0 28 ------- null}
+ -t 0.296285714285714 -s 1 -d 2 -p cbr -e 500 -c 0 -i 28 -a 0 -x {0.0 2.0 28 ------- null}
+ -t 0.3 -s 0 -d 1 -p cbr -e 500 -c 0 -i 40 -a 0 -x {0.0 2.0 40 ------- null}
d -t 0.3 -s 0 -d 1 -p cbr -e 500 -c 0 -i 40 -a 0 -x {0.0 2.0 40 ------- null}
+ -t 0.305 -s 0 -d 1 -p cbr -e 500 -c 0 -i 41 -a 0 -x {0.0 2.0 41 ------- null}
d -t 0.305 -s 0 -d 1 -p cbr -e 500 -c 0 -i 41 -a 0 -x {0.0 2.0 41 ------- null}
- -t 0.305714285714286 -s 0 -d 1 -p cbr -e 500 -c 0 -i 32 -a 0 -x {0.0 2.0 32 ------- null}
h -t 0.305714285714286 -s 0 -d 1 -p cbr -e 500 -c 0 -i 32 -a 0 -x {0.0 2.0 -1 ------- null}
r -t 0.307714285714286 -s 0 -d 1 -p cbr -e 500 -c 0 -i 30 -a 0 -x {0.0 2.0 30 ------- null}
+ -t 0.307714285714286 -s 1 -d 2 -p cbr -e 500 -c 0 -i 30 -a 0 -x {0.0 2.0 30 ------- null}
+ -t 0.31 -s 0 -d 1 -p cbr -e 500 -c 0 -i 42 -a 0 -x {0.0 2.0 42 ------- null}
+ -t 0.315 -s 0 -d 1 -p cbr -e 500 -c 0 -i 43 -a 0 -x {0.0 2.0 43 ------- null}
d -t 0.315 -s 0 -d 1 -p cbr -e 500 -c 0 -i 43 -a 0 -x {0.0 2.0 43 ------- null}
- -t 0.317142857142857 -s 0 -d 1 -p cbr -e 500 -c 0 -i 35 -a 0 -x {0.0 2.0 35 ------- null}
h -t 0.317142857142857 -s 0 -d 1 -p cbr -e 500 -c 0 -i 35 -a 0 -x {0.0 2.0 -1 ------- null}
r -t 0.319142857142857 -s 0 -d 1 -p cbr -e 500 -c 0 -i 32 -a 0 -x {0.0 2.0 32 ------- null}
+ -t 0.319142857142857 -s 1 -d 2 -p cbr -e 500 -c 0 -i 32 -a 0 -x {0.0 2.0 32 ------- null}
+ -t 0.32 -s 0 -d 1 -p cbr -e 500 -c 0 -i 44 -a 0 -x {0.0 2.0 44 ------- null}
+ -t 0.325 -s 0 -d 1 -p cbr -e 500 -c 0 -i 45 -a 0 -x {0.0 2.0 45 ------- null}
d -t 0.325 -s 0 -d 1 -p cbr -e 500 -c 0 -i 45 -a 0 -x {0.0 2.0 45 ------- null}
- -t 0.328571428571429 -s 0 -d 1 -p cbr -e 500 -c 0 -i 37 -a 0 -x {0.0 2.0 37 ------- null}
h -t 0.328571428571429 -s 0 -d 1 -p cbr -e 500 -c 0 -i 37 -a 0 -x {0.0 2.0 -1 ------- null}
+ -t 0.33 -s 0 -d 1 -p cbr -e 500 -c 0 -i 46 -a 0 -x {0.0 2.0 46 ------- null}
r -t 0.330571428571429 -s 0 -d 1 -p cbr -e 500 -c 0 -i 35 -a 0 -x {0.0 2.0 35 ------- null}
+ -t 0.330571428571429 -s 1 -d 2 -p cbr -e 500 -c 0 -i 35 -a 0 -x {0.0 2.0 35 ------- null}
- -t 0.33161038961039 -s 1 -d 2 -p cbr -e 500 -c 0 -i 3 -a 0 -x {0.0 2.0 3 ------- null}
h -t 0.33161038961039 -s 1 -d 2 -p cbr -e 500 -c 0 -i 3 -a 0 -x {0.0 2.0 -1 ------- null}
r -t 0.33261038961039 -s 1 -d 2 -p cbr -e 500 -c 0 -i 2 -a 0 -x {0.0 2.0 2 ------- null}
+ -t 0.335 -s 0 -d 1 -p cbr -e 500 -c 0 -i 47 -a 0 -x {0.0 2.0 47 ------- null}
d -t 0.335 -s 0 -d 1 -p cbr -e 500 -c 0 -i 47 -a 0 -x {0.0 2.0 47 ------- null}
- -t 0.34 -s 0 -d 1 -p cbr -e 500 -c 0 -i 39 -a 0 -x {0.0 2.0 39 ------- null}
h -t 0.34 -s 0 -d 1 -p cbr -e 500 -c 0 -i 39 -a 0 -x {0.0 2.0 -1 ------- null}
+ -t 0.34 -s 0 -d 1 -p cbr -e 500 -c 0 -i 48 -a 0 -x {0.0 2.0 48 ------- null}
r -t 0.342 -s 0 -d 1 -p cbr -e 500 -c 0 -i 37 -a 0 -x {0.0 2.0 37 ------- null}
+ -t 0.342 -s 1 -d 2 -p cbr -e 500 -c 0 -i 37 -a 0 -x {0.0 2.0 37 ------- null}
+ -t 0.345 -s 0 -d 1 -p cbr -e 500 -c 0 -i 49 -a 0 -x {0.0 2.0 49 ------- null}
d -t 0.345 -s 0 -d 1 -p cbr -e 500 -c 0 -i 49 -a 0 -x {0.0 2.0 49 ------- null}
+ -t 0.35 -s 0 -d 1 -p cbr -e 500 -c 0 -i 50 -a 0 -x {0.0 2.0 50 ------- null}
d -t 0.35 -s 0 -d 1 -p cbr -e 500 -c 0 -i 50 -a 0 -x {0.0 2.0 50 ------- null}
- -t 0.351428571428572 -s 0 -d 1 -p cbr -e 500 -c 0 -i 42 -a 0 -x {0.0 2.0 42 ------- null}
h -t 0.351428571428572 -s 0 -d 1 -p cbr -e 500 -c 0 -i 42 -a 0 -x {0.0 2.0 -1 ------- null}
r -t 0.353428571428572 -s 0 -d 1 -p cbr -e 500 -c 0 -i 39 -a 0 -x {0.0 2.0 39 ------- null}
+ -t 0.353428571428572 -s 1 -d 2 -p cbr -e 500 -c 0 -i 39 -a 0 -x {0.0 2.0 39 ------- null}
+ -t 0.355 -s 0 -d 1 -p cbr -e 500 -c 0 -i 51 -a 0 -x {0.0 2.0 51 ------- null}
+ -t 0.36 -s 0 -d 1 -p cbr -e 500 -c 0 -i 52 -a 0 -x {0.0 2.0 52 ------- null}
d -t 0.36 -s 0 -d 1 -p cbr -e 500 -c 0 -i 52 -a 0 -x {0.0 2.0 52 ------- null}
- -t 0.362857142857143 -s 0 -d 1 -p cbr -e 500 -c 0 -i 44 -a 0 -x {0.0 2.0 44 ------- null}
h -t 0.362857142857143 -s 0 -d 1 -p cbr -e 500 -c 0 -i 44 -a 0 -x {0.0 2.0 -1 ------- null}
r -t 0.364857142857143 -s 0 -d 1 -p cbr -e 500 -c 0 -i 42 -a 0 -x {0.0 2.0 42 ------- null}
+ -t 0.364857142857143 -s 1 -d 2 -p cbr -e 500 -c 0 -i 42 -a 0 -x {0.0 2.0 42 ------- null}
+ -t 0.365 -s 0 -d 1 -p cbr -e 500 -c 0 -i 53 -a 0 -x {0.0 2.0 53 ------- null}
+ -t 0.37 -s 0 -d 1 -p cbr -e 500 -c 0 -i 54 -a 0 -x {0.0 2.0 54 ------- null}
d -t 0.37 -s 0 -d 1 -p cbr -e 500 -c 0 -i 54 -a 0 -x {0.0 2.0 54 ------- null}
- -t 0.374285714285715 -s 0 -d 1 -p cbr -e 500 -c 0 -i 46 -a 0 -x {0.0 2.0 46 ------- null}
h -t 0.374285714285715 -s 0 -d 1 -p cbr -e 500 -c 0 -i 46 -a 0 -x {0.0 2.0 -1 ------- null}
+ -t 0.375 -s 0 -d 1 -p cbr -e 500 -c 0 -i 55 -a 0 -x {0.0 2.0 55 ------- null}
r -t 0.376285714285715 -s 0 -d 1 -p cbr -e 500 -c 0 -i 44 -a 0 -x {0.0 2.0 44 ------- null}
+ -t 0.376285714285715 -s 1 -d 2 -p cbr -e 500 -c 0 -i 44 -a 0 -x {0.0 2.0 44 ------- null}
+ -t 0.38 -s 0 -d 1 -p cbr -e 500 -c 0 -i 56 -a 0 -x {0.0 2.0 56 ------- null}
d -t 0.38 -s 0 -d 1 -p cbr -e 500 -c 0 -i 56 -a 0 -x {0.0 2.0 56 ------- null}
+ -t 0.385 -s 0 -d 1 -p cbr -e 500 -c 0 -i 57 -a 0 -x {0.0 2.0 57 ------- null}
d -t 0.385 -s 0 -d 1 -p cbr -e 500 -c 0 -i 57 -a 0 -x {0.0 2.0 57 ------- null}
- -t 0.385714285714286 -s 0 -d 1 -p cbr -e 500 -c 0 -i 48 -a 0 -x {0.0 2.0 48 ------- null}
h -t 0.385714285714286 -s 0 -d 1 -p cbr -e 500 -c 0 -i 48 -a 0 -x {0.0 2.0 -1 ------- null}
r -t 0.387714285714286 -s 0 -d 1 -p cbr -e 500 -c 0 -i 46 -a 0 -x {0.0 2.0 46 ------- null}
+ -t 0.387714285714286 -s 1 -d 2 -p cbr -e 500 -c 0 -i 46 -a 0 -x {0.0 2.0 46 ------- null}
+ -t 0.39 -s 0 -d 1 -p cbr -e 500 -c 0 -i 58 -a 0 -x {0.0 2.0 58 ------- null}
+ -t 0.395 -s 0 -d 1 -p cbr -e 500 -c 0 -i 59 -a 0 -x {0.0 2.0 59 ------- null}
d -t 0.395 -s 0 -d 1 -p cbr -e 500 -c 0 -i 59 -a 0 -x {0.0 2.0 59 ------- null}
- -t 0.397142857142857 -s 0 -d 1 -p cbr -e 500 -c 0 -i 51 -a 0 -x {0.0 2.0 51 ------- null}
h -t 0.397142857142857 -s 0 -d 1 -p cbr -e 500 -c 0 -i 51 -a 0 -x {0.0 2.0 -1 ------- null}
r -t 0.399142857142857 -s 0 -d 1 -p cbr -e 500 -c 0 -i 48 -a 0 -x {0.0 2.0 48 ------- null}
+ -t 0.399142857142857 -s 1 -d 2 -p cbr -e 500 -c 0 -i 48 -a 0 -x {0.0 2.0 48 ------- null}
+ -t 0.4 -s 0 -d 1 -p cbr -e 500 -c 0 -i 60 -a 0 -x {0.0 2.0 60 ------- null}
- -t 0.404337662337662 -s 1 -d 2 -p cbr -e 500 -c 0 -i 4 -a 0 -x {0.0 2.0 4 ------- null}
h -t 0.404337662337662 -s 1 -d 2 -p cbr -e 500 -c 0 -i 4 -a 0 -x {0.0 2.0 -1 ------- null}
+ -t 0.405 -s 0 -d 1 -p cbr -e 500 -c 0 -i 61 -a 0 -x {0.0 2.0 61 ------- null}
d -t 0.405 -s 0 -d 1 -p cbr -e 500 -c 0 -i 61 -a 0 -x {0.0 2.0 61 ------- null}
r -t 0.405337662337662 -s 1 -d 2 -p cbr -e 500 -c 0 -i 3 -a 0 -x {0.0 2.0 3 ------- null}
- -t 0.408571428571429 -s 0 -d 1 -p cbr -e 500 -c 0 -i 53 -a 0 -x {0.0 2.0 53 ------- null}
h -t 0.408571428571429 -s 0 -d 1 -p cbr -e 500 -c 0 -i 53 -a 0 -x {0.0 2.0 -1 ------- null}
+ -t 0.41 -s 0 -d 1 -p cbr -e 500 -c 0 -i 62 -a 0 -x {0.0 2.0 62 ------- null}
r -t 0.410571428571429 -s 0 -d 1 -p cbr -e 500 -c 0 -i 51 -a 0 -x {0.0 2.0 51 ------- null}
+ -t 0.410571428571429 -s 1 -d 2 -p cbr -e 500 -c 0 -i 51 -a 0 -x {0.0 2.0 51 ------- null}
+ -t 0.415 -s 0 -d 1 -p cbr -e 500 -c 0 -i 63 -a 0 -x {0.0 2.0 63 ------- null}
d -t 0.415 -s 0 -d 1 -p cbr -e 500 -c 0 -i 63 -a 0 -x {0.0 2.0 63 ------- null}
+ -t 0.42 -s 0 -d 1 -p cbr -e 500 -c 0 -i 64 -a 0 -x {0.0 2.0 64 ------- null}
d -t 0.42 -s 0 -d 1 -p cbr -e 500 -c 0 -i 64 -a 0 -x {0.0 2.0 64 ------- null}
- -t 0.42 -s 0 -d 1 -p cbr -e 500 -c 0 -i 55 -a 0 -x {0.0 2.0 55 ------- null}
h -t 0.42 -s 0 -d 1 -p cbr -e 500 -c 0 -i 55 -a 0 -x {0.0 2.0 -1 ------- null}
r -t 0.422 -s 0 -d 1 -p cbr -e 500 -c 0 -i 53 -a 0 -x {0.0 2.0 53 ------- null}
+ -t 0.422 -s 1 -d 2 -p cbr -e 500 -c 0 -i 53 -a 0 -x {0.0 2.0 53 ------- null}
+ -t 0.425 -s 0 -d 1 -p cbr -e 500 -c 0 -i 65 -a 0 -x {0.0 2.0 65 ------- null}
+ -t 0.43 -s 0 -d 1 -p cbr -e 500 -c 0 -i 66 -a 0 -x {0.0 2.0 66 ------- null}
d -t 0.43 -s 0 -d 1 -p cbr -e 500 -c 0 -i 66 -a 0 -x {0.0 2.0 66 ------- null}
- -t 0.431428571428572 -s 0 -d 1 -p cbr -e 500 -c 0 -i 58 -a 0 -x {0.0 2.0 58 ------- null}
h -t 0.431428571428572 -s 0 -d 1 -p cbr -e 500 -c 0 -i 58 -a 0 -x {0.0 2.0 -1 ------- null}
r -t 0.433428571428572 -s 0 -d 1 -p cbr -e 500 -c 0 -i 55 -a 0 -x {0.0 2.0 55 ------- null}
+ -t 0.433428571428572 -s 1 -d 2 -p cbr -e 500 -c 0 -i 55 -a 0 -x {0.0 2.0 55 ------- null}
+ -t 0.435 -s 0 -d 1 -p cbr -e 500 -c 0 -i 67 -a 0 -x {0.0 2.0 67 ------- null}
+ -t 0.44 -s 0 -d 1 -p cbr -e 500 -c 0 -i 68 -a 0 -x {0.0 2.0 68 ------- null}
d -t 0.44 -s 0 -d 1 -p cbr -e 500 -c 0 -i 68 -a 0 -x {0.0 2.0 68 ------- null}
- -t 0.442857142857143 -s 0 -d 1 -p cbr -e 500 -c 0 -i 60 -a 0 -x {0.0 2.0 60 ------- null}
h -t 0.442857142857143 -s 0 -d 1 -p cbr -e 500 -c 0 -i 60 -a 0 -x {0.0 2.0 -1 ------- null}
r -t 0.444857142857143 -s 0 -d 1 -p cbr -e 500 -c 0 -i 58 -a 0 -x {0.0 2.0 58 ------- null}
+ -t 0.444857142857143 -s 1 -d 2 -p cbr -e 500 -c 0 -i 58 -a 0 -x {0.0 2.0 58 ------- null}
+ -t 0.445 -s 0 -d 1 -p cbr -e 500 -c 0 -i 69 -a 0 -x {0.0 2.0 69 ------- null}
+ -t 0.45 -s 0 -d 1 -p cbr -e 500 -c 0 -i 70 -a 0 -x {0.0 2.0 70 ------- null}
d -t 0.45 -s 0 -d 1 -p cbr -e 500 -c 0 -i 70 -a 0 -x {0.0 2.0 70 ------- null}
- -t 0.454285714285715 -s 0 -d 1 -p cbr -e 500 -c 0 -i 62 -a 0 -x {0.0 2.0 62 ------- null}
h -t 0.454285714285715 -s 0 -d 1 -p cbr -e 500 -c 0 -i 62 -a 0 -x {0.0 2.0 -1 ------- null}
+ -t 0.455 -s 0 -d 1 -p cbr -e 500 -c 0 -i 71 -a 0 -x {0.0 2.0 71 ------- null}
r -t 0.456285714285715 -s 0 -d 1 -p cbr -e 500 -c 0 -i 60 -a 0 -x {0.0 2.0 60 ------- null}
+ -t 0.456285714285715 -s 1 -d 2 -p cbr -e 500 -c 0 -i 60 -a 0 -x {0.0 2.0 60 ------- null}
+ -t 0.46 -s 0 -d 1 -p cbr -e 500 -c 0 -i 72 -a 0 -x {0.0 2.0 72 ------- null}
d -t 0.46 -s 0 -d 1 -p cbr -e 500 -c 0 -i 72 -a 0 -x {0.0 2.0 72 ------- null}
+ -t 0.465 -s 0 -d 1 -p cbr -e 500 -c 0 -i 73 -a 0 -x {0.0 2.0 73 ------- null}
d -t 0.465 -s 0 -d 1 -p cbr -e 500 -c 0 -i 73 -a 0 -x {0.0 2.0 73 ------- null}
- -t 0.465714285714286 -s 0 -d 1 -p cbr -e 500 -c 0 -i 65 -a 0 -x {0.0 2.0 65 ------- null}
h -t 0.465714285714286 -s 0 -d 1 -p cbr -e 500 -c 0 -i 65 -a 0 -x {0.0 2.0 -1 ------- null}
r -t 0.467714285714286 -s 0 -d 1 -p cbr -e 500 -c 0 -i 62 -a 0 -x {0.0 2.0 62 ------- null}
+ -t 0.467714285714286 -s 1 -d 2 -p cbr -e 500 -c 0 -i 62 -a 0 -x {0.0 2.0 62 ------- null}
+ -t 0.47 -s 0 -d 1 -p cbr -e 500 -c 0 -i 74 -a 0 -x {0.0 2.0 74 ------- null}
+ -t 0.475 -s 0 -d 1 -p cbr -e 500 -c 0 -i 75 -a 0 -x {0.0 2.0 75 ------- null}
d -t 0.475 -s 0 -d 1 -p cbr -e 500 -c 0 -i 75 -a 0 -x {0.0 2.0 75 ------- null}
- -t 0.477064935064935 -s 1 -d 2 -p cbr -e 500 -c 0 -i 5 -a 0 -x {0.0 2.0 5 ------- null}
h -t 0.477064935064935 -s 1 -d 2 -p cbr -e 500 -c 0 -i 5 -a 0 -x {0.0 2.0 -1 ------- null}
- -t 0.477142857142858 -s 0 -d 1 -p cbr -e 500 -c 0 -i 67 -a 0 -x {0.0 2.0 67 ------- null}
h -t 0.477142857142858 -s 0 -d 1 -p cbr -e 500 -c 0 -i 67 -a 0 -x {0.0 2.0 -1 ------- null}
r -t 0.478064935064935 -s 1 -d 2 -p cbr -e 500 -c 0 -i 4 -a 0 -x {0.0 2.0 4 ------- null}
r -t 0.479142857142858 -s 0 -d 1 -p cbr -e 500 -c 0 -i 65 -a 0 -x {0.0 2.0 65 ------- null}
+ -t 0.479142857142858 -s 1 -d 2 -p cbr -e 500 -c 0 -i 65 -a 0 -x {0.0 2.0 65 ------- null}
+ -t 0.48 -s 0 -d 1 -p cbr -e 500 -c 0 -i 76 -a 0 -x {0.0 2.0 76 ------- null}
+ -t 0.485 -s 0 -d 1 -p cbr -e 500 -c 0 -i 77 -a 0 -x {0.0 2.0 77 ------- null}
d -t 0.485 -s 0 -d 1 -p cbr -e 500 -c 0 -i 77 -a 0 -x {0.0 2.0 77 ------- null}
- -t 0.488571428571429 -s 0 -d 1 -p cbr -e 500 -c 0 -i 69 -a 0 -x {0.0 2.0 69 ------- null}
h -t 0.488571428571429 -s 0 -d 1 -p cbr -e 500 -c 0 -i 69 -a 0 -x {0.0 2.0 -1 ------- null}
+ -t 0.49 -s 0 -d 1 -p cbr -e 500 -c 0 -i 78 -a 0 -x {0.0 2.0 78 ------- null}
r -t 0.490571428571429 -s 0 -d 1 -p cbr -e 500 -c 0 -i 67 -a 0 -x {0.0 2.0 67 ------- null}
+ -t 0.490571428571429 -s 1 -d 2 -p cbr -e 500 -c 0 -i 67 -a 0 -x {0.0 2.0 67 ------- null}
+ -t 0.495 -s 0 -d 1 -p cbr -e 500 -c 0 -i 79 -a 0 -x {0.0 2.0 79 ------- null}
d -t 0.495 -s 0 -d 1 -p cbr -e 500 -c 0 -i 79 -a 0 -x {0.0 2.0 79 ------- null}
+ -t 0.5 -s 0 -d 1 -p cbr -e 500 -c 0 -i 80 -a 0 -x {0.0 2.0 80 ------- null}
d -t 0.5 -s 0 -d 1 -p cbr -e 500 -c 0 -i 80 -a 0 -x {0.0 2.0 80 ------- null}
- -t 0.500000000000001 -s 0 -d 1 -p cbr -e 500 -c 0 -i 71 -a 0 -x {0.0 2.0 71 ------- null}
h -t 0.500000000000001 -s 0 -d 1 -p cbr -e 500 -c 0 -i 71 -a 0 -x {0.0 2.0 -1 ------- null}
r -t 0.502000000000001 -s 0 -d 1 -p cbr -e 500 -c 0 -i 69 -a 0 -x {0.0 2.0 69 ------- null}
+ -t 0.502000000000001 -s 1 -d 2 -p cbr -e 500 -c 0 -i 69 -a 0 -x {0.0 2.0 69 ------- null}
+ -t 0.505 -s 0 -d 1 -p cbr -e 500 -c 0 -i 81 -a 0 -x {0.0 2.0 81 ------- null}
+ -t 0.51 -s 0 -d 1 -p cbr -e 500 -c 0 -i 82 -a 0 -x {0.0 2.0 82 ------- null}
d -t 0.51 -s 0 -d 1 -p cbr -e 500 -c 0 -i 82 -a 0 -x {0.0 2.0 82 ------- null}
- -t 0.511428571428572 -s 0 -d 1 -p cbr -e 500 -c 0 -i 74 -a 0 -x {0.0 2.0 74 ------- null}
h -t 0.511428571428572 -s 0 -d 1 -p cbr -e 500 -c 0 -i 74 -a 0 -x {0.0 2.0 -1 ------- null}
r -t 0.513428571428572 -s 0 -d 1 -p cbr -e 500 -c 0 -i 71 -a 0 -x {0.0 2.0 71 ------- null}
+ -t 0.513428571428572 -s 1 -d 2 -p cbr -e 500 -c 0 -i 71 -a 0 -x {0.0 2.0 71 ------- null}
+ -t 0.515 -s 0 -d 1 -p cbr -e 500 -c 0 -i 83 -a 0 -x {0.0 2.0 83 ------- null}
+ -t 0.52 -s 0 -d 1 -p cbr -e 500 -c 0 -i 84 -a 0 -x {0.0 2.0 84 ------- null}
d -t 0.52 -s 0 -d 1 -p cbr -e 500 -c 0 -i 84 -a 0 -x {0.0 2.0 84 ------- null}
- -t 0.522857142857143 -s 0 -d 1 -p cbr -e 500 -c 0 -i 76 -a 0 -x {0.0 2.0 76 ------- null}
h -t 0.522857142857143 -s 0 -d 1 -p cbr -e 500 -c 0 -i 76 -a 0 -x {0.0 2.0 -1 ------- null}
r -t 0.524857142857143 -s 0 -d 1 -p cbr -e 500 -c 0 -i 74 -a 0 -x {0.0 2.0 74 ------- null}
+ -t 0.524857142857143 -s 1 -d 2 -p cbr -e 500 -c 0 -i 74 -a 0 -x {0.0 2.0 74 ------- null}
+ -t 0.525 -s 0 -d 1 -p cbr -e 500 -c 0 -i 85 -a 0 -x {0.0 2.0 85 ------- null}
+ -t 0.53 -s 0 -d 1 -p cbr -e 500 -c 0 -i 86 -a 0 -x {0.0 2.0 86 ------- null}
d -t 0.53 -s 0 -d 1 -p cbr -e 500 -c 0 -i 86 -a 0 -x {0.0 2.0 86 ------- null}
- -t 0.534285714285715 -s 0 -d 1 -p cbr -e 500 -c 0 -i 78 -a 0 -x {0.0 2.0 78 ------- null}
h -t 0.534285714285715 -s 0 -d 1 -p cbr -e 500 -c 0 -i 78 -a 0 -x {0.0 2.0 -1 ------- null}
+ -t 0.535 -s 0 -d 1 -p cbr -e 500 -c 0 -i 87 -a 0 -x {0.0 2.0 87 ------- null}
r -t 0.536285714285715 -s 0 -d 1 -p cbr -e 500 -c 0 -i 76 -a 0 -x {0.0 2.0 76 ------- null}
+ -t 0.536285714285715 -s 1 -d 2 -p cbr -e 500 -c 0 -i 76 -a 0 -x {0.0 2.0 76 ------- null}
+ -t 0.54 -s 0 -d 1 -p cbr -e 500 -c 0 -i 88 -a 0 -x {0.0 2.0 88 ------- null}
d -t 0.54 -s 0 -d 1 -p cbr -e 500 -c 0 -i 88 -a 0 -x {0.0 2.0 88 ------- null}
+ -t 0.545 -s 0 -d 1 -p cbr -e 500 -c 0 -i 89 -a 0 -x {0.0 2.0 89 ------- null}
d -t 0.545 -s 0 -d 1 -p cbr -e 500 -c 0 -i 89 -a 0 -x {0.0 2.0 89 ------- null}
- -t 0.545714285714286 -s 0 -d 1 -p cbr -e 500 -c 0 -i 81 -a 0 -x {0.0 2.0 81 ------- null}
h -t 0.545714285714286 -s 0 -d 1 -p cbr -e 500 -c 0 -i 81 -a 0 -x {0.0 2.0 -1 ------- null}
r -t 0.547714285714286 -s 0 -d 1 -p cbr -e 500 -c 0 -i 78 -a 0 -x {0.0 2.0 78 ------- null}
+ -t 0.547714285714286 -s 1 -d 2 -p cbr -e 500 -c 0 -i 78 -a 0 -x {0.0 2.0 78 ------- null}
- -t 0.549792207792208 -s 1 -d 2 -p cbr -e 500 -c 0 -i 6 -a 0 -x {0.0 2.0 6 ------- null}
h -t 0.549792207792208 -s 1 -d 2 -p cbr -e 500 -c 0 -i 6 -a 0 -x {0.0 2.0 -1 ------- null}
+ -t 0.55 -s 0 -d 1 -p cbr -e 500 -c 0 -i 90 -a 0 -x {0.0 2.0 90 ------- null}
r -t 0.550792207792208 -s 1 -d 2 -p cbr -e 500 -c 0 -i 5 -a 0 -x {0.0 2.0 5 ------- null}
+ -t 0.555 -s 0 -d 1 -p cbr -e 500 -c 0 -i 91 -a 0 -x {0.0 2.0 91 ------- null}
d -t 0.555 -s 0 -d 1 -p cbr -e 500 -c 0 -i 91 -a 0 -x {0.0 2.0 91 ------- null}
- -t 0.557142857142858 -s 0 -d 1 -p cbr -e 500 -c 0 -i 83 -a 0 -x {0.0 2.0 83 ------- null}
h -t 0.557142857142858 -s 0 -d 1 -p cbr -e 500 -c 0 -i 83 -a 0 -x {0.0 2.0 -1 ------- null}
r -t 0.559142857142858 -s 0 -d 1 -p cbr -e 500 -c 0 -i 81 -a 0 -x {0.0 2.0 81 ------- null}
+ -t 0.559142857142858 -s 1 -d 2 -p cbr -e 500 -c 0 -i 81 -a 0 -x {0.0 2.0 81 ------- null}
+ -t 0.56 -s 0 -d 1 -p cbr -e 500 -c 0 -i 92 -a 0 -x {0.0 2.0 92 ------- null}
+ -t 0.565 -s 0 -d 1 -p cbr -e 500 -c 0 -i 93 -a 0 -x {0.0 2.0 93 ------- null}
d -t 0.565 -s 0 -d 1 -p cbr -e 500 -c 0 -i 93 -a 0 -x {0.0 2.0 93 ------- null}
- -t 0.568571428571429 -s 0 -d 1 -p cbr -e 500 -c 0 -i 85 -a 0 -x {0.0 2.0 85 ------- null}
h -t 0.568571428571429 -s 0 -d 1 -p cbr -e 500 -c 0 -i 85 -a 0 -x {0.0 2.0 -1 ------- null}
+ -t 0.57 -s 0 -d 1 -p cbr -e 500 -c 0 -i 94 -a 0 -x {0.0 2.0 94 ------- null}
r -t 0.570571428571429 -s 0 -d 1 -p cbr -e 500 -c 0 -i 83 -a 0 -x {0.0 2.0 83 ------- null}
+ -t 0.570571428571429 -s 1 -d 2 -p cbr -e 500 -c 0 -i 83 -a 0 -x {0.0 2.0 83 ------- null}
+ -t 0.575 -s 0 -d 1 -p cbr -e 500 -c 0 -i 95 -a 0 -x {0.0 2.0 95 ------- null}
d -t 0.575 -s 0 -d 1 -p cbr -e 500 -c 0 -i 95 -a 0 -x {0.0 2.0 95 ------- null}
+ -t 0.58 -s 0 -d 1 -p cbr -e 500 -c 0 -i 96 -a 0 -x {0.0 2.0 96 ------- null}
d -t 0.58 -s 0 -d 1 -p cbr -e 500 -c 0 -i 96 -a 0 -x {0.0 2.0 96 ------- null}
- -t 0.580000000000001 -s 0 -d 1 -p cbr -e 500 -c 0 -i 87 -a 0 -x {0.0 2.0 87 ------- null}
h -t 0.580000000000001 -s 0 -d 1 -p cbr -e 500 -c 0 -i 87 -a 0 -x {0.0 2.0 -1 ------- null}
r -t 0.582000000000001 -s 0 -d 1 -p cbr -e 500 -c 0 -i 85 -a 0 -x {0.0 2.0 85 ------- null}
+ -t 0.582000000000001 -s 1 -d 2 -p cbr -e 500 -c 0 -i 85 -a 0 -x {0.0 2.0 85 ------- null}
+ -t 0.585 -s 0 -d 1 -p cbr -e 500 -c 0 -i 97 -a 0 -x {0.0 2.0 97 ------- null}
+ -t 0.59 -s 0 -d 1 -p cbr -e 500 -c 0 -i 98 -a 0 -x {0.0 2.0 98 ------- null}
d -t 0.59 -s 0 -d 1 -p cbr -e 500 -c 0 -i 98 -a 0 -x {0.0 2.0 98 ------- null}
- -t 0.591428571428572 -s 0 -d 1 -p cbr -e 500 -c 0 -i 90 -a 0 -x {0.0 2.0 90 ------- null}
h -t 0.591428571428572 -s 0 -d 1 -p cbr -e 500 -c 0 -i 90 -a 0 -x {0.0 2.0 -1 ------- null}
r -t 0.593428571428572 -s 0 -d 1 -p cbr -e 500 -c 0 -i 87 -a 0 -x {0.0 2.0 87 ------- null}
+ -t 0.593428571428572 -s 1 -d 2 -p cbr -e 500 -c 0 -i 87 -a 0 -x {0.0 2.0 87 ------- null}
+ -t 0.595 -s 0 -d 1 -p cbr -e 500 -c 0 -i 99 -a 0 -x {0.0 2.0 99 ------- null}