+ 0.1 0 1 cbr 500 ------- 0 0.0 2.0 0 0
- 0.1 0 1 cbr 500 ------- 0 0.0 2.0 0 0
+ 0.105 0 1 cbr 500 ------- 0 0.0 2.0 1 1
+ 0.11 0 1 cbr 500 ------- 0 0.0 2.0 2 2
- 0.111429 0 1 cbr 500 ------- 0 0.0 2.0 1 1
r 0.113429 0 1 cbr 500 ------- 0 0.0 2.0 0 0
+ 0.113429 1 2 cbr 500 ------- 0 0.0 2.0 0 0
- 0.113429 1 2 cbr 500 ------- 0 0.0 2.0 0 0
+ 0.115 0 1 cbr 500 ------- 0 0.0 2.0 3 3
+ 0.12 0 1 cbr 500 ------- 0 0.0 2.0 4 4
- 0.122857 0 1 cbr 500 ------- 0 0.0 2.0 2 2
r 0.124857 0 1 cbr 500 ------- 0 0.0 2.0 1 1
+ 0.124857 1 2 cbr 500 ------- 0 0.0 2.0 1 1
+ 0.125 0 1 cbr 500 ------- 0 0.0 2.0 5 5
+ 0.13 0 1 cbr 500 ------- 0 0.0 2.0 6 6
- 0.134286 0 1 cbr 500 ------- 0 0.0 2.0 3 3
+ 0.135 0 1 cbr 500 ------- 0 0.0 2.0 7 7
r 0.136286 0 1 cbr 500 ------- 0 0.0 2.0 2 2
+ 0.136286 1 2 cbr 500 ------- 0 0.0 2.0 2 2
+ 0.14 0 1 cbr 500 ------- 0 0.0 2.0 8 8
+ 0.145 0 1 cbr 500 ------- 0 0.0 2.0 9 9
- 0.145714 0 1 cbr 500 ------- 0 0.0 2.0 4 4
r 0.147714 0 1 cbr 500 ------- 0 0.0 2.0 3 3
+ 0.147714 1 2 cbr 500 ------- 0 0.0 2.0 3 3
+ 0.15 0 1 cbr 500 ------- 0 0.0 2.0 10 10
+ 0.155 0 1 cbr 500 ------- 0 0.0 2.0 11 11
- 0.157143 0 1 cbr 500 ------- 0 0.0 2.0 5 5
r 0.159143 0 1 cbr 500 ------- 0 0.0 2.0 4 4
+ 0.159143 1 2 cbr 500 ------- 0 0.0 2.0 4 4
+ 0.16 0 1 cbr 500 ------- 0 0.0 2.0 12 12
+ 0.165 0 1 cbr 500 ------- 0 0.0 2.0 13 13
- 0.168571 0 1 cbr 500 ------- 0 0.0 2.0 6 6
+ 0.17 0 1 cbr 500 ------- 0 0.0 2.0 14 14
r 0.170571 0 1 cbr 500 ------- 0 0.0 2.0 5 5
+ 0.170571 1 2 cbr 500 ------- 0 0.0 2.0 5 5
+ 0.175 0 1 cbr 500 ------- 0 0.0 2.0 15 15
- 0.18 0 1 cbr 500 ------- 0 0.0 2.0 7 7
+ 0.18 0 1 cbr 500 ------- 0 0.0 2.0 16 16
r 0.182 0 1 cbr 500 ------- 0 0.0 2.0 6 6
+ 0.182 1 2 cbr 500 ------- 0 0.0 2.0 6 6
+ 0.185 0 1 cbr 500 ------- 0 0.0 2.0 17 17
d 0.185 0 1 cbr 500 ------- 0 0.0 2.0 17 17
- 0.186156 1 2 cbr 500 ------- 0 0.0 2.0 1 1
r 0.187156 1 2 cbr 500 ------- 0 0.0 2.0 0 0
+ 0.19 0 1 cbr 500 ------- 0 0.0 2.0 18 18
d 0.19 0 1 cbr 500 ------- 0 0.0 2.0 18 18
- 0.191429 0 1 cbr 500 ------- 0 0.0 2.0 8 8
r 0.193429 0 1 cbr 500 ------- 0 0.0 2.0 7 7
+ 0.193429 1 2 cbr 500 ------- 0 0.0 2.0 7 7
+ 0.195 0 1 cbr 500 ------- 0 0.0 2.0 19 19
+ 0.2 0 1 cbr 500 ------- 0 0.0 2.0 20 20
d 0.2 0 1 cbr 500 ------- 0 0.0 2.0 20 20
- 0.202857 0 1 cbr 500 ------- 0 0.0 2.0 9 9
r 0.204857 0 1 cbr 500 ------- 0 0.0 2.0 8 8
+ 0.204857 1 2 cbr 500 ------- 0 0.0 2.0 8 8
+ 0.205 0 1 cbr 500 ------- 0 0.0 2.0 21 21
+ 0.21 0 1 cbr 500 ------- 0 0.0 2.0 22 22
d 0.21 0 1 cbr 500 ------- 0 0.0 2.0 22 22
- 0.214286 0 1 cbr 500 ------- 0 0.0 2.0 10 10
+ 0.215 0 1 cbr 500 ------- 0 0.0 2.0 23 23
r 0.216286 0 1 cbr 500 ------- 0 0.0 2.0 9 9
+ 0.216286 1 2 cbr 500 ------- 0 0.0 2.0 9 9
+ 0.22 0 1 cbr 500 ------- 0 0.0 2.0 24 24
d 0.22 0 1 cbr 500 ------- 0 0.0 2.0 24 24
+ 0.225 0 1 cbr 500 ------- 0 0.0 2.0 25 25
d 0.225 0 1 cbr 500 ------- 0 0.0 2.0 25 25
- 0.225714 0 1 cbr 500 ------- 0 0.0 2.0 11 11
r 0.227714 0 1 cbr 500 ------- 0 0.0 2.0 10 10
+ 0.227714 1 2 cbr 500 ------- 0 0.0 2.0 10 10
+ 0.23 0 1 cbr 500 ------- 0 0.0 2.0 26 26
+ 0.235 0 1 cbr 500 ------- 0 0.0 2.0 27 27
d 0.235 0 1 cbr 500 ------- 0 0.0 2.0 27 27
- 0.237143 0 1 cbr 500 ------- 0 0.0 2.0 12 12
r 0.239143 0 1 cbr 500 ------- 0 0.0 2.0 11 11
+ 0.239143 1 2 cbr 500 ------- 0 0.0 2.0 11 11
+ 0.24 0 1 cbr 500 ------- 0 0.0 2.0 28 28
+ 0.245 0 1 cbr 500 ------- 0 0.0 2.0 29 29
d 0.245 0 1 cbr 500 ------- 0 0.0 2.0 29 29
- 0.248571 0 1 cbr 500 ------- 0 0.0 2.0 13 13
+ 0.25 0 1 cbr 500 ------- 0 0.0 2.0 30 30
r 0.250571 0 1 cbr 500 ------- 0 0.0 2.0 12 12
+ 0.250571 1 2 cbr 500 ------- 0 0.0 2.0 12 12
+ 0.255 0 1 cbr 500 ------- 0 0.0 2.0 31 31
d 0.255 0 1 cbr 500 ------- 0 0.0 2.0 31 31
- 0.258883 1 2 cbr 500 ------- 0 0.0 2.0 2 2
r 0.259883 1 2 cbr 500 ------- 0 0.0 2.0 1 1
- 0.26 0 1 cbr 500 ------- 0 0.0 2.0 14 14
+ 0.26 0 1 cbr 500 ------- 0 0.0 2.0 32 32
r 0.262 0 1 cbr 500 ------- 0 0.0 2.0 13 13
+ 0.262 1 2 cbr 500 ------- 0 0.0 2.0 13 13
+ 0.265 0 1 cbr 500 ------- 0 0.0 2.0 33 33
d 0.265 0 1 cbr 500 ------- 0 0.0 2.0 33 33
+ 0.27 0 1 cbr 500 ------- 0 0.0 2.0 34 34
d 0.27 0 1 cbr 500 ------- 0 0.0 2.0 34 34
- 0.271429 0 1 cbr 500 ------- 0 0.0 2.0 15 15
r 0.273429 0 1 cbr 500 ------- 0 0.0 2.0 14 14
+ 0.273429 1 2 cbr 500 ------- 0 0.0 2.0 14 14
+ 0.275 0 1 cbr 500 ------- 0 0.0 2.0 35 35
+ 0.28 0 1 cbr 500 ------- 0 0.0 2.0 36 36
d 0.28 0 1 cbr 500 ------- 0 0.0 2.0 36 36
- 0.282857 0 1 cbr 500 ------- 0 0.0 2.0 16 16
r 0.284857 0 1 cbr 500 ------- 0 0.0 2.0 15 15
+ 0.284857 1 2 cbr 500 ------- 0 0.0 2.0 15 15
+ 0.285 0 1 cbr 500 ------- 0 0.0 2.0 37 37
+ 0.29 0 1 cbr 500 ------- 0 0.0 2.0 38 38
d 0.29 0 1 cbr 500 ------- 0 0.0 2.0 38 38
- 0.294286 0 1 cbr 500 ------- 0 0.0 2.0 19 19
+ 0.295 0 1 cbr 500 ------- 0 0.0 2.0 39 39
r 0.296286 0 1 cbr 500 ------- 0 0.0 2.0 16 16
+ 0.296286 1 2 cbr 500 ------- 0 0.0 2.0 16 16
+ 0.3 0 1 cbr 500 ------- 0 0.0 2.0 40 40
d 0.3 0 1 cbr 500 ------- 0 0.0 2.0 40 40
+ 0.305 0 1 cbr 500 ------- 0 0.0 2.0 41 41
d 0.305 0 1 cbr 500 ------- 0 0.0 2.0 41 41
- 0.305714 0 1 cbr 500 ------- 0 0.0 2.0 21 21
r 0.307714 0 1 cbr 500 ------- 0 0.0 2.0 19 19
+ 0.307714 1 2 cbr 500 ------- 0 0.0 2.0 19 19
+ 0.31 0 1 cbr 500 ------- 0 0.0 2.0 42 42
+ 0.315 0 1 cbr 500 ------- 0 0.0 2.0 43 43
d 0.315 0 1 cbr 500 ------- 0 0.0 2.0 43 43
- 0.317143 0 1 cbr 500 ------- 0 0.0 2.0 23 23
r 0.319143 0 1 cbr 500 ------- 0 0.0 2.0 21 21
+ 0.319143 1 2 cbr 500 ------- 0 0.0 2.0 21 21
+ 0.32 0 1 cbr 500 ------- 0 0.0 2.0 44 44
+ 0.325 0 1 cbr 500 ------- 0 0.0 2.0 45 45
d 0.325 0 1 cbr 500 ------- 0 0.0 2.0 45 45
- 0.328571 0 1 cbr 500 ------- 0 0.0 2.0 26 26
+ 0.33 0 1 cbr 500 ------- 0 0.0 2.0 46 46
r 0.330571 0 1 cbr 500 ------- 0 0.0 2.0 23 23
+ 0.330571 1 2 cbr 500 ------- 0 0.0 2.0 23 23
- 0.33161 1 2 cbr 500 ------- 0 0.0 2.0 3 3
r 0.33261 1 2 cbr 500 ------- 0 0.0 2.0 2 2
+ 0.335 0 1 cbr 500 ------- 0 0.0 2.0 47 47
d 0.335 0 1 cbr 500 ------- 0 0.0 2.0 47 47
- 0.34 0 1 cbr 500 ------- 0 0.0 2.0 28 28
+ 0.34 0 1 cbr 500 ------- 0 0.0 2.0 48 48
r 0.342 0 1 cbr 500 ------- 0 0.0 2.0 26 26
+ 0.342 1 2 cbr 500 ------- 0 0.0 2.0 26 26
+ 0.345 0 1 cbr 500 ------- 0 0.0 2.0 49 49
d 0.345 0 1 cbr 500 ------- 0 0.0 2.0 49 49
+ 0.35 0 1 cbr 500 ------- 0 0.0 2.0 50 50
d 0.35 0 1 cbr 500 ------- 0 0.0 2.0 50 50
- 0.351429 0 1 cbr 500 ------- 0 0.0 2.0 30 30
r 0.353429 0 1 cbr 500 ------- 0 0.0 2.0 28 28
+ 0.353429 1 2 cbr 500 ------- 0 0.0 2.0 28 28
+ 0.355 0 1 cbr 500 ------- 0 0.0 2.0 51 51
+ 0.36 0 1 cbr 500 ------- 0 0.0 2.0 52 52
d 0.36 0 1 cbr 500 ------- 0 0.0 2.0 52 52
- 0.362857 0 1 cbr 500 ------- 0 0.0 2.0 32 32
r 0.364857 0 1 cbr 500 ------- 0 0.0 2.0 30 30
+ 0.364857 1 2 cbr 500 ------- 0 0.0 2.0 30 30
+ 0.365 0 1 cbr 500 ------- 0 0.0 2.0 53 53
+ 0.37 0 1 cbr 500 ------- 0 0.0 2.0 54 54
d 0.37 0 1 cbr 500 ------- 0 0.0 2.0 54 54
- 0.374286 0 1 cbr 500 ------- 0 0.0 2.0 35 35
+ 0.375 0 1 cbr 500 ------- 0 0.0 2.0 55 55
r 0.376286 0 1 cbr 500 ------- 0 0.0 2.0 32 32
+ 0.376286 1 2 cbr 500 ------- 0 0.0 2.0 32 32
+ 0.38 0 1 cbr 500 ------- 0 0.0 2.0 56 56
d 0.38 0 1 cbr 500 ------- 0 0.0 2.0 56 56
+ 0.385 0 1 cbr 500 ------- 0 0.0 2.0 57 57
d 0.385 0 1 cbr 500 ------- 0 0.0 2.0 57 57
- 0.385714 0 1 cbr 500 ------- 0 0.0 2.0 37 37
r 0.387714 0 1 cbr 500 ------- 0 0.0 2.0 35 35
+ 0.387714 1 2 cbr 500 ------- 0 0.0 2.0 35 35
+ 0.39 0 1 cbr 500 ------- 0 0.0 2.0 58 58
+ 0.395 0 1 cbr 500 ------- 0 0.0 2.0 59 59
d 0.395 0 1 cbr 500 ------- 0 0.0 2.0 59 59
- 0.397143 0 1 cbr 500 ------- 0 0.0 2.0 39 39
r 0.399143 0 1 cbr 500 ------- 0 0.0 2.0 37 37
+ 0.399143 1 2 cbr 500 ------- 0 0.0 2.0 37 37
+ 0.4 0 1 cbr 500 ------- 0 0.0 2.0 60 60
- 0.404338 1 2 cbr 500 ------- 0 0.0 2.0 4 4
+ 0.405 0 1 cbr 500 ------- 0 0.0 2.0 61 61
d 0.405 0 1 cbr 500 ------- 0 0.0 2.0 61 61
r 0.405338 1 2 cbr 500 ------- 0 0.0 2.0 3 3
- 0.408571 0 1 cbr 500 ------- 0 0.0 2.0 42 42
+ 0.41 0 1 cbr 500 ------- 0 0.0 2.0 62 62
r 0.410571 0 1 cbr 500 ------- 0 0.0 2.0 39 39
+ 0.410571 1 2 cbr 500 ------- 0 0.0 2.0 39 39
+ 0.415 0 1 cbr 500 ------- 0 0.0 2.0 63 63
d 0.415 0 1 cbr 500 ------- 0 0.0 2.0 63 63
+ 0.42 0 1 cbr 500 ------- 0 0.0 2.0 64 64
d 0.42 0 1 cbr 500 ------- 0 0.0 2.0 64 64
- 0.42 0 1 cbr 500 ------- 0 0.0 2.0 44 44
r 0.422 0 1 cbr 500 ------- 0 0.0 2.0 42 42
+ 0.422 1 2 cbr 500 ------- 0 0.0 2.0 42 42
+ 0.425 0 1 cbr 500 ------- 0 0.0 2.0 65 65
+ 0.43 0 1 cbr 500 ------- 0 0.0 2.0 66 66
d 0.43 0 1 cbr 500 ------- 0 0.0 2.0 66 66
- 0.431429 0 1 cbr 500 ------- 0 0.0 2.0 46 46
r 0.433429 0 1 cbr 500 ------- 0 0.0 2.0 44 44
+ 0.433429 1 2 cbr 500 ------- 0 0.0 2.0 44 44
+ 0.435 0 1 cbr 500 ------- 0 0.0 2.0 67 67
+ 0.44 0 1 cbr 500 ------- 0 0.0 2.0 68 68
d 0.44 0 1 cbr 500 ------- 0 0.0 2.0 68 68
- 0.442857 0 1 cbr 500 ------- 0 0.0 2.0 48 48
r 0.444857 0 1 cbr 500 ------- 0 0.0 2.0 46 46
+ 0.444857 1 2 cbr 500 ------- 0 0.0 2.0 46 46
+ 0.445 0 1 cbr 500 ------- 0 0.0 2.0 69 69
+ 0.45 0 1 cbr 500 ------- 0 0.0 2.0 70 70
d 0.45 0 1 cbr 500 ------- 0 0.0 2.0 70 70
- 0.454286 0 1 cbr 500 ------- 0 0.0 2.0 51 51
+ 0.455 0 1 cbr 500 ------- 0 0.0 2.0 71 71
r 0.456286 0 1 cbr 500 ------- 0 0.0 2.0 48 48
+ 0.456286 1 2 cbr 500 ------- 0 0.0 2.0 48 48
+ 0.46 0 1 cbr 500 ------- 0 0.0 2.0 72 72
d 0.46 0 1 cbr 500 ------- 0 0.0 2.0 72 72
+ 0.465 0 1 cbr 500 ------- 0 0.0 2.0 73 73
d 0.465 0 1 cbr 500 ------- 0 0.0 2.0 73 73
- 0.465714 0 1 cbr 500 ------- 0 0.0 2.0 53 53
r 0.467714 0 1 cbr 500 ------- 0 0.0 2.0 51 51
+ 0.467714 1 2 cbr 500 ------- 0 0.0 2.0 51 51
+ 0.47 0 1 cbr 500 ------- 0 0.0 2.0 74 74
+ 0.475 0 1 cbr 500 ------- 0 0.0 2.0 75 75
d 0.475 0 1 cbr 500 ------- 0 0.0 2.0 75 75
- 0.477065 1 2 cbr 500 ------- 0 0.0 2.0 5 5
- 0.477143 0 1 cbr 500 ------- 0 0.0 2.0 55 55
r 0.478065 1 2 cbr 500 ------- 0 0.0 2.0 4 4
r 0.479143 0 1 cbr 500 ------- 0 0.0 2.0 53 53
+ 0.479143 1 2 cbr 500 ------- 0 0.0 2.0 53 53
+ 0.48 0 1 cbr 500 ------- 0 0.0 2.0 76 76
+ 0.485 0 1 cbr 500 ------- 0 0.0 2.0 77 77
d 0.485 0 1 cbr 500 ------- 0 0.0 2.0 77 77
- 0.488571 0 1 cbr 500 ------- 0 0.0 2.0 58 58
+ 0.49 0 1 cbr 500 ------- 0 0.0 2.0 78 78
r 0.490571 0 1 cbr 500 ------- 0 0.0 2.0 55 55
+ 0.490571 1 2 cbr 500 ------- 0 0.0 2.0 55 55
+ 0.495 0 1 cbr 500 ------- 0 0.0 2.0 79 79
d 0.495 0 1 cbr 500 ------- 0 0.0 2.0 79 79
+ 0.5 0 1 cbr 500 ------- 0 0.0 2.0 80 80
d 0.5 0 1 cbr 500 ------- 0 0.0 2.0 80 80
- 0.5 0 1 cbr 500 ------- 0 0.0 2.0 60 60
r 0.502 0 1 cbr 500 ------- 0 0.0 2.0 58 58
+ 0.502 1 2 cbr 500 ------- 0 0.0 2.0 58 58
+ 0.505 0 1 cbr 500 ------- 0 0.0 2.0 81 81
+ 0.51 0 1 cbr 500 ------- 0 0.0 2.0 82 82
d 0.51 0 1 cbr 500 ------- 0 0.0 2.0 82 82
- 0.511429 0 1 cbr 500 ------- 0 0.0 2.0 62 62
r 0.513429 0 1 cbr 500 ------- 0 0.0 2.0 60 60
+ 0.513429 1 2 cbr 500 ------- 0 0.0 2.0 60 60
+ 0.515 0 1 cbr 500 ------- 0 0.0 2.0 83 83
+ 0.52 0 1 cbr 500 ------- 0 0.0 2.0 84 84
d 0.52 0 1 cbr 500 ------- 0 0.0 2.0 84 84
- 0.522857 0 1 cbr 500 ------- 0 0.0 2.0 65 65
r 0.524857 0 1 cbr 500 ------- 0 0.0 2.0 62 62
+ 0.524857 1 2 cbr 500 ------- 0 0.0 2.0 62 62
+ 0.525 0 1 cbr 500 ------- 0 0.0 2.0 85 85
+ 0.53 0 1 cbr 500 ------- 0 0.0 2.0 86 86
d 0.53 0 1 cbr 500 ------- 0 0.0 2.0 86 86
- 0.534286 0 1 cbr 500 ------- 0 0.0 2.0 67 67
+ 0.535 0 1 cbr 500 ------- 0 0.0 2.0 87 87
r 0.536286 0 1 cbr 500 ------- 0 0.0 2.0 65 65
+ 0.536286 1 2 cbr 500 ------- 0 0.0 2.0 65 65
+ 0.54 0 1 cbr 500 ------- 0 0.0 2.0 88 88
d 0.54 0 1 cbr 500 ------- 0 0.0 2.0 88 88
+ 0.545 0 1 cbr 500 ------- 0 0.0 2.0 89 89
d 0.545 0 1 cbr 500 ------- 0 0.0 2.0 89 89
- 0.545714 0 1 cbr 500 ------- 0 0.0 2.0 69 69
r 0.547714 0 1 cbr 500 ------- 0 0.0 2.0 67 67
+ 0.547714 1 2 cbr 500 ------- 0 0.0 2.0 67 67
- 0.549792 1 2 cbr 500 ------- 0 0.0 2.0 6 6
+ 0.55 0 1 cbr 500 ------- 0 0.0 2.0 90 90
r 0.550792 1 2 cbr 500 ------- 0 0.0 2.0 5 5
+ 0.555 0 1 cbr 500 ------- 0 0.0 2.0 91 91
d 0.555 0 1 cbr 500 ------- 0 0.0 2.0 91 91
- 0.557143 0 1 cbr 500 ------- 0 0.0 2.0 71 71
r 0.559143 0 1 cbr 500 ------- 0 0.0 2.0 69 69
+ 0.559143 1 2 cbr 500 ------- 0 0.0 2.0 69 69
+ 0.56 0 1 cbr 500 ------- 0 0.0 2.0 92 92
+ 0.565 0 1 cbr 500 ------- 0 0.0 2.0 93 93
d 0.565 0 1 cbr 500 ------- 0 0.0 2.0 93 93
- 0.568571 0 1 cbr 500 ------- 0 0.0 2.0 74 74
+ 0.57 0 1 cbr 500 ------- 0 0.0 2.0 94 94
r 0.570571 0 1 cbr 500 ------- 0 0.0 2.0 71 71
+ 0.570571 1 2 cbr 500 ------- 0 0.0 2.0 71 71
+ 0.575 0 1 cbr 500 ------- 0 0.0 2.0 95 95
d 0.575 0 1 cbr 500 ------- 0 0.0 2.0 95 95
+ 0.58 0 1 cbr 500 ------- 0 0.0 2.0 96 96
d 0.58 0 1 cbr 500 ------- 0 0.0 2.0 96 96
- 0.58 0 1 cbr 500 ------- 0 0.0 2.0 76 76
r 0.582 0 1 cbr 500 ------- 0 0.0 2.0 74 74
+ 0.582 1 2 cbr 500 ------- 0 0.0 2.0 74 74
+ 0.585 0 1 cbr 500 ------- 0 0.0 2.0 97 97
+ 0.59 0 1 cbr 500 ------- 0 0.0 2.0 98 98
d 0.59 0 1 cbr 500 ------- 0 0.0 2.0 98 98
- 0.591429 0 1 cbr 500 ------- 0 0.0 2.0 78 78
r 0.593429 0 1 cbr 500 ------- 0 0.0 2.0 76 76
+ 0.593429 1 2 cbr 500 ------- 0 0.0 2.0 76 76
+ 0.595 0 1 cbr 500 ------- 0 0.0 2.0 99 99
+ 0.6 0 1 cbr 500 ------- 0 0.0 2.0 100 100
d 0.6 0 1 cbr 500 ------- 0 0.0 2.0 100 100
- 0.602857 0 1 cbr 500 ------- 0 0.0 2.0 81 81
r 0.604857 0 1 cbr 500 ------- 0 0.0 2.0 78 78
+ 0.604857 1 2 cbr 500 ------- 0 0.0 2.0 78 78
+ 0.605 0 1 cbr 500 ------- 0 0.0 2.0 101 101
+ 0.61 0 1 cbr 500 ------- 0 0.0 2.0 102 102
d 0.61 0 1 cbr 500 ------- 0 0.0 2.0 102 102
- 0.614286 0 1 cbr 500 ------- 0 0.0 2.0 83 83
+ 0.615 0 1 cbr 500 ------- 0 0.0 2.0 103 103
r 0.616286 0 1 cbr 500 ------- 0 0.0 2.0 81 81
+ 0.616286 1 2 cbr 500 ------- 0 0.0 2.0 81 81
+ 0.62 0 1 cbr 500 ------- 0 0.0 2.0 104 104
d 0.62 0 1 cbr 500 ------- 0 0.0 2.0 104 104
- 0.622519 1 2 cbr 500 ------- 0 0.0 2.0 7 7
r 0.623519 1 2 cbr 500 ------- 0 0.0 2.0 6 6
+ 0.625 0 1 cbr 500 ------- 0 0.0 2.0 105 105
d 0.625 0 1 cbr 500 ------- 0 0.0 2.0 105 105
- 0.625714 0 1 cbr 500 ------- 0 0.0 2.0 85 85
r 0.627714 0 1 cbr 500 ------- 0 0.0 2.0 83 83
+ 0.627714 1 2 cbr 500 ------- 0 0.0 2.0 83 83
+ 0.63 0 1 cbr 500 ------- 0 0.0 2.0 106 106
+ 0.635 0 1 cbr 500 ------- 0 0.0 2.0 107 107
d 0.635 0 1 cbr 500 ------- 0 0.0 2.0 107 107
- 0.637143 0 1 cbr 500 ------- 0 0.0 2.0 87 87
r 0.639143 0 1 cbr 500 ------- 0 0.0 2.0 85 85
+ 0.639143 1 2 cbr 500 ------- 0 0.0 2.0 85 85
+ 0.64 0 1 cbr 500 ------- 0 0.0 2.0 108 108
+ 0.645 0 1 cbr 500 ------- 0 0.0 2.0 109 109
d 0.645 0 1 cbr 500 ------- 0 0.0 2.0 109 109
- 0.648571 0 1 cbr 500 ------- 0 0.0 2.0 90 90
+ 0.65 0 1 cbr 500 ------- 0 0.0 2.0 110 110
r 0.650571 0 1 cbr 500 ------- 0 0.0 2.0 87 87
+ 0.650571 1 2 cbr 500 ------- 0 0.0 2.0 87 87
+ 0.655 0 1 cbr 500 ------- 0 0.0 2.0 111 111
d 0.655 0 1 cbr 500 ------- 0 0.0 2.0 111 111
+ 0.66 0 1 cbr 500 ------- 0 0.0 2.0 112 112
d 0.66 0 1 cbr 500 ------- 0 0.0 2.0 112 112
- 0.66 0 1 cbr 500 ------- 0 0.0 2.0 92 92
r 0.662 0 1 cbr 500 ------- 0 0.0 2.0 90 90
+ 0.662 1 2 cbr 500 ------- 0 0.0 2.0 90 90
+ 0.665 0 1 cbr 500 ------- 0 0.0 2.0 113 113
+ 0.67 0 1 cbr 500 ------- 0 0.0 2.0 114 114
d 0.67 0 1 cbr 500 ------- 0 0.0 2.0 114 114
- 0.671429 0 1 cbr 500 ------- 0 0.0 2.0 94 94
r 0.673429 0 1 cbr 500 ------- 0 0.0 2.0 92 92
+ 0.673429 1 2 cbr 500 ------- 0 0.0 2.0 92 92
+ 0.675 0 1 cbr 500 ------- 0 0.0 2.0 115 115
+ 0.68 0 1 cbr 500 ------- 0 0.0 2.0 116 116
d 0.68 0 1 cbr 500 ------- 0 0.0 2.0 116 116
- 0.682857 0 1 cbr 500 ------- 0 0.0 2.0 97 97
r 0.684857 0 1 cbr 500 ------- 0 0.0 2.0 94 94
+ 0.684857 1 2 cbr 500 ------- 0 0.0 2.0 94 94
+ 0.685 0 1 cbr 500 ------- 0 0.0 2.0 117 117
+ 0.69 0 1 cbr 500 ------- 0 0.0 2.0 118 118
d 0.69 0 1 cbr 500 ------- 0 0.0 2.0 118 118
- 0.694286 0 1 cbr 500 ------- 0 0.0 2.0 99 99
+ 0.695 0 1 cbr 500 ------- 0 0.0 2.0 119 119
- 0.695247 1 2 cbr 500 ------- 0 0.0 2.0 8 8
r 0.696247 1 2 cbr 500 ------- 0 0.0 2.0 7 7
r 0.696286 0 1 cbr 500 ------- 0 0.0 2.0 97 97
+ 0.696286 1 2 cbr 500 ------- 0 0.0 2.0 97 97
+ 0.7 0 1 cbr 500 ------- 0 0.0 2.0 120 120
d 0.7 0 1 cbr 500 ------- 0 0.0 2.0 120 120
+ 0.705 0 1 cbr 500 ------- 0 0.0 2.0 121 121
d 0.705 0 1 cbr 500 ------- 0 0.0 2.0 121 121
- 0.705714 0 1 cbr 500 ------- 0 0.0 2.0 101 101
r 0.707714 0 1 cbr 500 ------- 0 0.0 2.0 99 99
+ 0.707714 1 2 cbr 500 ------- 0 0.0 2.0 99 99
+ 0.71 0 1 cbr 500 ------- 0 0.0 2.0 122 122
+ 0.715 0 1 cbr 500 ------- 0 0.0 2.0 123 123
d 0.715 0 1 cbr 500 ------- 0 0.0 2.0 123 123
- 0.717143 0 1 cbr 500 ------- 0 0.0 2.0 103 103
r 0.719143 0 1 cbr 500 ------- 0 0.0 2.0 101 101
+ 0.719143 1 2 cbr 500 ------- 0 0.0 2.0 101 101
+ 0.72 0 1 cbr 500 ------- 0 0.0 2.0 124 124
+ 0.725 0 1 cbr 500 ------- 0 0.0 2.0 125 125
d 0.725 0 1 cbr 500 ------- 0 0.0 2.0 125 125
- 0.728571 0 1 cbr 500 ------- 0 0.0 2.0 106 106
+ 0.73 0 1 cbr 500 ------- 0 0.0 2.0 126 126
r 0.730571 0 1 cbr 500 ------- 0 0.0 2.0 103 103
+ 0.730571 1 2 cbr 500 ------- 0 0.0 2.0 103 103
+ 0.735 0 1 cbr 500 ------- 0 0.0 2.0 127 127
d 0.735 0 1 cbr 500 ------- 0 0.0 2.0 127 127
+ 0.74 0 1 cbr 500 ------- 0 0.0 2.0 128 128
d 0.74 0 1 cbr 500 ------- 0 0.0 2.0 128 128
- 0.74 0 1 cbr 500 ------- 0 0.0 2.0 108 108
r 0.742 0 1 cbr 500 ------- 0 0.0 2.0 106 106
+ 0.742 1 2 cbr 500 ------- 0 0.0 2.0 106 106
+ 0.745 0 1 cbr 500 ------- 0 0.0 2.0 129 129
+ 0.75 0 1 cbr 500 ------- 0 0.0 2.0 130 130
d 0.75 0 1 cbr 500 ------- 0 0.0 2.0 130 130
- 0.751429 0 1 cbr 500 ------- 0 0.0 2.0 110 110
r 0.753429 0 1 cbr 500 ------- 0 0.0 2.0 108 108
+ 0.753429 1 2 cbr 500 ------- 0 0.0 2.0 108 108
+ 0.755 0 1 cbr 500 ------- 0 0.0 2.0 131 131
+ 0.76 0 1 cbr 500 ------- 0 0.0 2.0 132 132
d 0.76 0 1 cbr 500 ------- 0 0.0 2.0 132 132
- 0.762857 0 1 cbr 500 ------- 0 0.0 2.0 113 113
r 0.764857 0 1 cbr 500 ------- 0 0.0 2.0 110 110
+ 0.764857 1 2 cbr 500 ------- 0 0.0 2.0 110 110
+ 0.765 0 1 cbr 500 ------- 0 0.0 2.0 133 133
- 0.767974 1 2 cbr 500 ------- 0 0.0 2.0 9 9
r 0.768974 1 2 cbr 500 ------- 0 0.0 2.0 8 8
+ 0.77 0 1 cbr 500 ------- 0 0.0 2.0 134 134
d 0.77 0 1 cbr 500 ------- 0 0.0 2.0 134 134
- 0.774286 0 1 cbr 500 ------- 0 0.0 2.0 115 115
+ 0.775 0 1 cbr 500 ------- 0 0.0 2.0 135 135
r 0.776286 0 1 cbr 500 ------- 0 0.0 2.0 113 113
+ 0.776286 1 2 cbr 500 ------- 0 0.0 2.0 113 113
+ 0.78 0 1 cbr 500 ------- 0 0.0 2.0 136 136
d 0.78 0 1 cbr 500 ------- 0 0.0 2.0 136 136
+ 0.785 0 1 cbr 500 ------- 0 0.0 2.0 137 137
d 0.785 0 1 cbr 500 ------- 0 0.0 2.0 137 137
- 0.785714 0 1 cbr 500 ------- 0 0.0 2.0 117 117
r 0.787714 0 1 cbr 500 ------- 0 0.0 2.0 115 115
+ 0.787714 1 2 cbr 500 ------- 0 0.0 2.0 115 115
d 0.787714 1 2 cbr 500 ------- 0 0.0 2.0 115 115
+ 0.79 0 1 cbr 500 ------- 0 0.0 2.0 138 138
+ 0.795 0 1 cbr 500 ------- 0 0.0 2.0 139 139
d 0.795 0 1 cbr 500 ------- 0 0.0 2.0 139 139
- 0.797143 0 1 cbr 500 ------- 0 0.0 2.0 119 119
r 0.799143 0 1 cbr 500 ------- 0 0.0 2.0 117 117
+ 0.799143 1 2 cbr 500 ------- 0 0.0 2.0 117 117
d 0.799143 1 2 cbr 500 ------- 0 0.0 2.0 117 117
+ 0.8 0 1 cbr 500 ------- 0 0.0 2.0 140 140
+ 0.805 0 1 cbr 500 ------- 0 0.0 2.0 141 141
d 0.805 0 1 cbr 500 ------- 0 0.0 2.0 141 141
- 0.808571 0 1 cbr 500 ------- 0 0.0 2.0 122 122
+ 0.81 0 1 cbr 500 ------- 0 0.0 2.0 142 142
r 0.810571 0 1 cbr 500 ------- 0 0.0 2.0 119 119
+ 0.810571 1 2 cbr 500 ------- 0 0.0 2.0 119 119
d 0.810571 1 2 cbr 500 ------- 0 0.0 2.0 119 119
+ 0.815 0 1 cbr 500 ------- 0 0.0 2.0 143 143
d 0.815 0 1 cbr 500 ------- 0 0.0 2.0 143 143
+ 0.82 0 1 cbr 500 ------- 0 0.0 2.0 144 144
d 0.82 0 1 cbr 500 ------- 0 0.0 2.0 144 144
- 0.82 0 1 cbr 500 ------- 0 0.0 2.0 124 124
r 0.822 0 1 cbr 500 ------- 0 0.0 2.0 122 122
+ 0.822 1 2 cbr 500 ------- 0 0.0 2.0 122 122
d 0.822 1 2 cbr 500 ------- 0 0.0 2.0 122 122
+ 0.825 0 1 cbr 500 ------- 0 0.0 2.0 145 145
+ 0.83 0 1 cbr 500 ------- 0 0.0 2.0 146 146
d 0.83 0 1 cbr 500 ------- 0 0.0 2.0 146 146
- 0.831429 0 1 cbr 500 ------- 0 0.0 2.0 126 126
r 0.833429 0 1 cbr 500 ------- 0 0.0 2.0 124 124
+ 0.833429 1 2 cbr 500 ------- 0 0.0 2.0 124 124
d 0.833429 1 2 cbr 500 ------- 0 0.0 2.0 124 124
+ 0.835 0 1 cbr 500 ------- 0 0.0 2.0 147 147
+ 0.84 0 1 cbr 500 ------- 0 0.0 2.0 148 148
d 0.84 0 1 cbr 500 ------- 0 0.0 2.0 148 148
- 0.840701 1 2 cbr 500 ------- 0 0.0 2.0 10 10
r 0.841701 1 2 cbr 500 ------- 0 0.0 2.0 9 9
- 0.842857 0 1 cbr 500 ------- 0 0.0 2.0 129 129
r 0.844857 0 1 cbr 500 ------- 0 0.0 2.0 126 126
+ 0.844857 1 2 cbr 500 ------- 0 0.0 2.0 126 126
+ 0.845 0 1 cbr 500 ------- 0 0.0 2.0 149 149
+ 0.85 0 1 cbr 500 ------- 0 0.0 2.0 150 150
d 0.85 0 1 cbr 500 ------- 0 0.0 2.0 150 150
- 0.854286 0 1 cbr 500 ------- 0 0.0 2.0 131 131
+ 0.855 0 1 cbr 500 ------- 0 0.0 2.0 151 151
r 0.856286 0 1 cbr 500 ------- 0 0.0 2.0 129 129
+ 0.856286 1 2 cbr 500 ------- 0 0.0 2.0 129 129
d 0.856286 1 2 cbr 500 ------- 0 0.0 2.0 129 129
+ 0.86 0 1 cbr 500 ------- 0 0.0 2.0 152 152
d 0.86 0 1 cbr 500 ------- 0 0.0 2.0 152 152
+ 0.865 0 1 cbr 500 ------- 0 0.0 2.0 153 153
d 0.865 0 1 cbr 500 ------- 0 0.0 2.0 153 153
- 0.865714 0 1 cbr 500 ------- 0 0.0 2.0 133 133
r 0.867714 0 1 cbr 500 ------- 0 0.0 2.0 131 131
+ 0.867714 1 2 cbr 500 ------- 0 0.0 2.0 131 131
d 0.867714 1 2 cbr 500 ------- 0 0.0 2.0 131 131
+ 0.87 0 1 cbr 500 ------- 0 0.0 2.0 154 154
+ 0.875 0 1 cbr 500 ------- 0 0.0 2.0 155 155
d 0.875 0 1 cbr 500 ------- 0 0.0 2.0 155 155
- 0.877143 0 1 cbr 500 ------- 0 0.0 2.0 135 135
r 0.879143 0 1 cbr 500 ------- 0 0.0 2.0 133 133
+ 0.879143 1 2 cbr 500 ------- 0 0.0 2.0 133 133
d 0.879143 1 2 cbr 500 ------- 0 0.0 2.0 133 133
+ 0.88 0 1 cbr 500 ------- 0 0.0 2.0 156 156
+ 0.885 0 1 cbr 500 ------- 0 0.0 2.0 157 157
d 0.885 0 1 cbr 500 ------- 0 0.0 2.0 157 157
- 0.888571 0 1 cbr 500 ------- 0 0.0 2.0 138 138
+ 0.89 0 1 cbr 500 ------- 0 0.0 2.0 158 158
r 0.890571 0 1 cbr 500 ------- 0 0.0 2.0 135 135
+ 0.890571 1 2 cbr 500 ------- 0 0.0 2.0 135 135
d 0.890571 1 2 cbr 500 ------- 0 0.0 2.0 135 135
+ 0.895 0 1 cbr 500 ------- 0 0.0 2.0 159 159
d 0.895 0 1 cbr 500 ------- 0 0.0 2.0 159 159
+ 0.9 0 1 cbr 500 ------- 0 0.0 2.0 160 160
d 0.9 0 1 cbr 500 ------- 0 0.0 2.0 160 160
- 0.9 0 1 cbr 500 ------- 0 0.0 2.0 140 140
r 0.902 0 1 cbr 500 ------- 0 0.0 2.0 138 138
+ 0.902 1 2 cbr 500 ------- 0 0.0 2.0 138 138
d 0.902 1 2 cbr 500 ------- 0 0.0 2.0 138 138
+ 0.905 0 1 cbr 500 ------- 0 0.0 2.0 161 161
+ 0.91 0 1 cbr 500 ------- 0 0.0 2.0 162 162
d 0.91 0 1 cbr 500 ------- 0 0.0 2.0 162 162
- 0.911429 0 1 cbr 500 ------- 0 0.0 2.0 142 142
- 0.913429 1 2 cbr 500 ------- 0 0.0 2.0 11 11
r 0.913429 0 1 cbr 500 ------- 0 0.0 2.0 140 140
+ 0.913429 1 2 cbr 500 ------- 0 0.0 2.0 140 140
r 0.914429 1 2 cbr 500 ------- 0 0.0 2.0 10 10
+ 0.915 0 1 cbr 500 ------- 0 0.0 2.0 163 163
+ 0.92 0 1 cbr 500 ------- 0 0.0 2.0 164 164
d 0.92 0 1 cbr 500 ------- 0 0.0 2.0 164 164
- 0.922857 0 1 cbr 500 ------- 0 0.0 2.0 145 145
r 0.924857 0 1 cbr 500 ------- 0 0.0 2.0 142 142
+ 0.924857 1 2 cbr 500 ------- 0 0.0 2.0 142 142
d 0.924857 1 2 cbr 500 ------- 0 0.0 2.0 142 142
+ 0.925 0 1 cbr 500 ------- 0 0.0 2.0 165 165
+ 0.93 0 1 cbr 500 ------- 0 0.0 2.0 166 166
d 0.93 0 1 cbr 500 ------- 0 0.0 2.0 166 166
- 0.934286 0 1 cbr 500 ------- 0 0.0 2.0 147 147
+ 0.935 0 1 cbr 500 ------- 0 0.0 2.0 167 167
r 0.936286 0 1 cbr 500 ------- 0 0.0 2.0 145 145
+ 0.936286 1 2 cbr 500 ------- 0 0.0 2.0 145 145
d 0.936286 1 2 cbr 500 ------- 0 0.0 2.0 145 145
+ 0.94 0 1 cbr 500 ------- 0 0.0 2.0 168 168
d 0.94 0 1 cbr 500 ------- 0 0.0 2.0 168 168
+ 0.945 0 1 cbr 500 ------- 0 0.0 2.0 169 169
d 0.945 0 1 cbr 500 ------- 0 0.0 2.0 169 169
- 0.945714 0 1 cbr 500 ------- 0 0.0 2.0 149 149
r 0.947714 0 1 cbr 500 ------- 0 0.0 2.0 147 147
+ 0.947714 1 2 cbr 500 ------- 0 0.0 2.0 147 147
d 0.947714 1 2 cbr 500 ------- 0 0.0 2.0 147 147
+ 0.95 0 1 cbr 500 ------- 0 0.0 2.0 170 170
+ 0.955 0 1 cbr 500 ------- 0 0.0 2.0 171 171
d 0.955 0 1 cbr 500 ------- 0 0.0 2.0 171 171
- 0.957143 0 1 cbr 500 ------- 0 0.0 2.0 151 151
r 0.959143 0 1 cbr 500 ------- 0 0.0 2.0 149 149
+ 0.959143 1 2 cbr 500 ------- 0 0.0 2.0 149 149
d 0.959143 1 2 cbr 500 ------- 0 0.0 2.0 149 149
+ 0.96 0 1 cbr 500 ------- 0 0.0 2.0 172 172
+ 0.965 0 1 cbr 500 ------- 0 0.0 2.0 173 173
d 0.965 0 1 cbr 500 ------- 0 0.0 2.0 173 173
- 0.968571 0 1 cbr 500 ------- 0 0.0 2.0 154 154
+ 0.97 0 1 cbr 500 ------- 0 0.0 2.0 174 174
r 0.970571 0 1 cbr 500 ------- 0 0.0 2.0 151 151
+ 0.970571 1 2 cbr 500 ------- 0 0.0 2.0 151 151
d 0.970571 1 2 cbr 500 ------- 0 0.0 2.0 151 151
+ 0.975 0 1 cbr 500 ------- 0 0.0 2.0 175 175
d 0.975 0 1 cbr 500 ------- 0 0.0 2.0 175 175
+ 0.98 0 1 cbr 500 ------- 0 0.0 2.0 176 176
d 0.98 0 1 cbr 500 ------- 0 0.0 2.0 176 176
- 0.98 0 1 cbr 500 ------- 0 0.0 2.0 156 156
r 0.982 0 1 cbr 500 ------- 0 0.0 2.0 154 154
+ 0.982 1 2 cbr 500 ------- 0 0.0 2.0 154 154
d 0.982 1 2 cbr 500 ------- 0 0.0 2.0 154 154
+ 0.985 0 1 cbr 500 ------- 0 0.0 2.0 177 177
- 0.986156 1 2 cbr 500 ------- 0 0.0 2.0 12 12
r 0.987156 1 2 cbr 500 ------- 0 0.0 2.0 11 11
+ 0.99 0 1 cbr 500 ------- 0 0.0 2.0 178 178
d 0.99 0 1 cbr 500 ------- 0 0.0 2.0 178 178
- 0.991429 0 1 cbr 500 ------- 0 0.0 2.0 158 158
r 0.993429 0 1 cbr 500 ------- 0 0.0 2.0 156 156
+ 0.993429 1 2 cbr 500 ------- 0 0.0 2.0 156 156
+ 0.995 0 1 cbr 500 ------- 0 0.0 2.0 179 179
