+ 0.1 5 3 ping 64 ------- 0 5.0 1.0 -1 0
- 0.1 5 3 ping 64 ------- 0 5.0 1.0 -1 0
r 0.11512 5 3 ping 64 ------- 0 5.0 1.0 -1 0
+ 0.11512 3 2 ping 64 ------- 0 5.0 1.0 -1 0
- 0.11512 3 2 ping 64 ------- 0 5.0 1.0 -1 0
r 0.13024 3 2 ping 64 ------- 0 5.0 1.0 -1 0
+ 0.13024 2 1 ping 64 ------- 0 5.0 1.0 -1 0
- 0.13024 2 1 ping 64 ------- 0 5.0 1.0 -1 0
r 0.14536 2 1 ping 64 ------- 0 5.0 1.0 -1 0
+ 0.14536 1 2 ping 64 ------- 0 1.0 5.0 -1 1
- 0.14536 1 2 ping 64 ------- 0 1.0 5.0 -1 1
+ 0.15 0 2 ping 64 ------- 0 0.0 4.0 -1 2
- 0.15 0 2 ping 64 ------- 0 0.0 4.0 -1 2
r 0.16048 1 2 ping 64 ------- 0 1.0 5.0 -1 1
+ 0.16048 2 3 ping 64 ------- 0 1.0 5.0 -1 1
- 0.16048 2 3 ping 64 ------- 0 1.0 5.0 -1 1
r 0.16512 0 2 ping 64 ------- 0 0.0 4.0 -1 2
+ 0.16512 2 3 ping 64 ------- 0 0.0 4.0 -1 2
- 0.1656 2 3 ping 64 ------- 0 0.0 4.0 -1 2
r 0.1756 2 3 ping 64 ------- 0 1.0 5.0 -1 1
+ 0.1756 3 5 ping 64 ------- 0 1.0 5.0 -1 1
d 0.1756 3 5 ping 64 ------- 0 1.0 5.0 -1 1
r 0.18072 2 3 ping 64 ------- 0 0.0 4.0 -1 2
+ 0.18072 3 4 ping 64 ------- 0 0.0 4.0 -1 2
d 0.18072 3 4 ping 64 ------- 0 0.0 4.0 -1 2
