V -t * -v 1.0a5 -a 0
A -t * -n 1 -p 0 -o 0x7fffffff -c 30 -a 1
A -t * -h 1 -m 1073741823 -s 0
c -t * -i 4 -n Cyan
c -t * -i 0 -n Red
c -t * -i 1 -n Blue
c -t * -i 2 -n Azure
c -t * -i 3 -n Coral
n -t * -a 4 -s 4 -S UP -v circle -c black -i black
n -t * -a 0 -s 0 -S UP -v circle -c black -i black
n -t * -a 5 -s 5 -S UP -v circle -c black -i black
n -t * -a 1 -s 1 -S UP -v circle -c black -i black
n -t * -a 2 -s 2 -S UP -v circle -c black -i black
n -t * -a 3 -s 3 -S UP -v circle -c black -i black
l -t * -s 1 -d 0 -S UP -r 1000000 -D 0.01 -c black
l -t * -s 2 -d 0 -S UP -r 1000000 -D 0.01 -c black
l -t * -s 3 -d 0 -S UP -r 1000000 -D 0.01 -c black
l -t * -s 4 -d 0 -S UP -r 1000000 -D 0.01 -c black
l -t * -s 5 -d 0 -S UP -r 1000000 -D 0.01 -c black
+ -t 0.1 -s 0 -d 1 -p tcp -e 40 -c 0 -i 0 -a 0 -x {0.0 1.0 0 ------- null}
- -t 0.1 -s 0 -d 1 -p tcp -e 40 -c 0 -i 0 -a 0 -x {0.0 1.0 0 ------- null}
h -t 0.1 -s 0 -d 1 -p tcp -e 40 -c 0 -i 0 -a 0 -x {0.0 1.0 -1 ------- null}
+ -t 0.1 -s 2 -d 0 -p tcp -e 40 -c 1 -i 1 -a 1 -x {2.0 3.0 0 ------- null}
- -t 0.1 -s 2 -d 0 -p tcp -e 40 -c 1 -i 1 -a 1 -x {2.0 3.0 0 ------- null}
h -t 0.1 -s 2 -d 0 -p tcp -e 40 -c 1 -i 1 -a 1 -x {2.0 3.0 -1 ------- null}
r -t 0.11032 -s 0 -d 1 -p tcp -e 40 -c 0 -i 0 -a 0 -x {0.0 1.0 0 ------- null}
+ -t 0.11032 -s 1 -d 0 -p ack -e 40 -c 0 -i 2 -a 0 -x {1.0 0.0 0 ------- null}
- -t 0.11032 -s 1 -d 0 -p ack -e 40 -c 0 -i 2 -a 0 -x {1.0 0.0 0 ------- null}
h -t 0.11032 -s 1 -d 0 -p ack -e 40 -c 0 -i 2 -a 0 -x {1.0 0.0 -1 ------- null}
r -t 0.11032 -s 2 -d 0 -p tcp -e 40 -c 1 -i 1 -a 1 -x {2.0 3.0 0 ------- null}
+ -t 0.11032 -s 0 -d 3 -p tcp -e 40 -c 1 -i 1 -a 1 -x {2.0 3.0 0 ------- null}
- -t 0.11032 -s 0 -d 3 -p tcp -e 40 -c 1 -i 1 -a 1 -x {2.0 3.0 0 ------- null}
h -t 0.11032 -s 0 -d 3 -p tcp -e 40 -c 1 -i 1 -a 1 -x {2.0 3.0 -1 ------- null}
r -t 0.12064 -s 1 -d 0 -p ack -e 40 -c 0 -i 2 -a 0 -x {1.0 0.0 0 ------- null}
+ -t 0.12064 -s 0 -d 1 -p tcp -e 1040 -c 0 -i 3 -a 0 -x {0.0 1.0 1 ------- null}
- -t 0.12064 -s 0 -d 1 -p tcp -e 1040 -c 0 -i 3 -a 0 -x {0.0 1.0 1 ------- null}
h -t 0.12064 -s 0 -d 1 -p tcp -e 1040 -c 0 -i 3 -a 0 -x {0.0 1.0 -1 ------- null}
+ -t 0.12064 -s 0 -d 1 -p tcp -e 1040 -c 0 -i 4 -a 0 -x {0.0 1.0 2 ------- null}
r -t 0.12064 -s 0 -d 3 -p tcp -e 40 -c 1 -i 1 -a 1 -x {2.0 3.0 0 ------- null}
+ -t 0.12064 -s 3 -d 0 -p ack -e 40 -c 1 -i 5 -a 1 -x {3.0 2.0 0 ------- null}
- -t 0.12064 -s 3 -d 0 -p ack -e 40 -c 1 -i 5 -a 1 -x {3.0 2.0 0 ------- null}
h -t 0.12064 -s 3 -d 0 -p ack -e 40 -c 1 -i 5 -a 1 -x {3.0 2.0 -1 ------- null}
- -t 0.12896 -s 0 -d 1 -p tcp -e 1040 -c 0 -i 4 -a 0 -x {0.0 1.0 2 ------- null}
h -t 0.12896 -s 0 -d 1 -p tcp -e 1040 -c 0 -i 4 -a 0 -x {0.0 1.0 -1 ------- null}
r -t 0.13096 -s 3 -d 0 -p ack -e 40 -c 1 -i 5 -a 1 -x {3.0 2.0 0 ------- null}
+ -t 0.13096 -s 0 -d 2 -p ack -e 40 -c 1 -i 5 -a 1 -x {3.0 2.0 0 ------- null}
- -t 0.13096 -s 0 -d 2 -p ack -e 40 -c 1 -i 5 -a 1 -x {3.0 2.0 0 ------- null}
h -t 0.13096 -s 0 -d 2 -p ack -e 40 -c 1 -i 5 -a 1 -x {3.0 2.0 -1 ------- null}
r -t 0.13896 -s 0 -d 1 -p tcp -e 1040 -c 0 -i 3 -a 0 -x {0.0 1.0 1 ------- null}
+ -t 0.13896 -s 1 -d 0 -p ack -e 40 -c 0 -i 6 -a 0 -x {1.0 0.0 1 ------- null}
- -t 0.13896 -s 1 -d 0 -p ack -e 40 -c 0 -i 6 -a 0 -x {1.0 0.0 1 ------- null}
h -t 0.13896 -s 1 -d 0 -p ack -e 40 -c 0 -i 6 -a 0 -x {1.0 0.0 -1 ------- null}
r -t 0.14128 -s 0 -d 2 -p ack -e 40 -c 1 -i 5 -a 1 -x {3.0 2.0 0 ------- null}
+ -t 0.14128 -s 2 -d 0 -p tcp -e 1040 -c 1 -i 7 -a 1 -x {2.0 3.0 1 ------- null}
- -t 0.14128 -s 2 -d 0 -p tcp -e 1040 -c 1 -i 7 -a 1 -x {2.0 3.0 1 ------- null}
h -t 0.14128 -s 2 -d 0 -p tcp -e 1040 -c 1 -i 7 -a 1 -x {2.0 3.0 -1 ------- null}
+ -t 0.14128 -s 2 -d 0 -p tcp -e 1040 -c 1 -i 8 -a 1 -x {2.0 3.0 2 ------- null}
r -t 0.14728 -s 0 -d 1 -p tcp -e 1040 -c 0 -i 4 -a 0 -x {0.0 1.0 2 ------- null}
+ -t 0.14728 -s 1 -d 0 -p ack -e 40 -c 0 -i 9 -a 0 -x {1.0 0.0 2 ------- null}
- -t 0.14728 -s 1 -d 0 -p ack -e 40 -c 0 -i 9 -a 0 -x {1.0 0.0 2 ------- null}
h -t 0.14728 -s 1 -d 0 -p ack -e 40 -c 0 -i 9 -a 0 -x {1.0 0.0 -1 ------- null}
r -t 0.14928 -s 1 -d 0 -p ack -e 40 -c 0 -i 6 -a 0 -x {1.0 0.0 1 ------- null}
+ -t 0.14928 -s 0 -d 1 -p tcp -e 1040 -c 0 -i 10 -a 0 -x {0.0 1.0 3 ------- null}
- -t 0.14928 -s 0 -d 1 -p tcp -e 1040 -c 0 -i 10 -a 0 -x {0.0 1.0 3 ------- null}
h -t 0.14928 -s 0 -d 1 -p tcp -e 1040 -c 0 -i 10 -a 0 -x {0.0 1.0 -1 ------- null}
+ -t 0.14928 -s 0 -d 1 -p tcp -e 1040 -c 0 -i 11 -a 0 -x {0.0 1.0 4 ------- null}
- -t 0.1496 -s 2 -d 0 -p tcp -e 1040 -c 1 -i 8 -a 1 -x {2.0 3.0 2 ------- null}
h -t 0.1496 -s 2 -d 0 -p tcp -e 1040 -c 1 -i 8 -a 1 -x {2.0 3.0 -1 ------- null}
r -t 0.1576 -s 1 -d 0 -p ack -e 40 -c 0 -i 9 -a 0 -x {1.0 0.0 2 ------- null}
+ -t 0.1576 -s 0 -d 1 -p tcp -e 1040 -c 0 -i 12 -a 0 -x {0.0 1.0 5 ------- null}
+ -t 0.1576 -s 0 -d 1 -p tcp -e 1040 -c 0 -i 13 -a 0 -x {0.0 1.0 6 ------- null}
- -t 0.1576 -s 0 -d 1 -p tcp -e 1040 -c 0 -i 11 -a 0 -x {0.0 1.0 4 ------- null}
h -t 0.1576 -s 0 -d 1 -p tcp -e 1040 -c 0 -i 11 -a 0 -x {0.0 1.0 -1 ------- null}
r -t 0.1596 -s 2 -d 0 -p tcp -e 1040 -c 1 -i 7 -a 1 -x {2.0 3.0 1 ------- null}
+ -t 0.1596 -s 0 -d 3 -p tcp -e 1040 -c 1 -i 7 -a 1 -x {2.0 3.0 1 ------- null}
- -t 0.1596 -s 0 -d 3 -p tcp -e 1040 -c 1 -i 7 -a 1 -x {2.0 3.0 1 ------- null}
h -t 0.1596 -s 0 -d 3 -p tcp -e 1040 -c 1 -i 7 -a 1 -x {2.0 3.0 -1 ------- null}
- -t 0.16592 -s 0 -d 1 -p tcp -e 1040 -c 0 -i 12 -a 0 -x {0.0 1.0 5 ------- null}
h -t 0.16592 -s 0 -d 1 -p tcp -e 1040 -c 0 -i 12 -a 0 -x {0.0 1.0 -1 ------- null}
r -t 0.1676 -s 0 -d 1 -p tcp -e 1040 -c 0 -i 10 -a 0 -x {0.0 1.0 3 ------- null}
+ -t 0.1676 -s 1 -d 0 -p ack -e 40 -c 0 -i 14 -a 0 -x {1.0 0.0 3 ------- null}
- -t 0.1676 -s 1 -d 0 -p ack -e 40 -c 0 -i 14 -a 0 -x {1.0 0.0 3 ------- null}
h -t 0.1676 -s 1 -d 0 -p ack -e 40 -c 0 -i 14 -a 0 -x {1.0 0.0 -1 ------- null}
r -t 0.16792 -s 2 -d 0 -p tcp -e 1040 -c 1 -i 8 -a 1 -x {2.0 3.0 2 ------- null}
+ -t 0.16792 -s 0 -d 3 -p tcp -e 1040 -c 1 -i 8 -a 1 -x {2.0 3.0 2 ------- null}
- -t 0.16792 -s 0 -d 3 -p tcp -e 1040 -c 1 -i 8 -a 1 -x {2.0 3.0 2 ------- null}
h -t 0.16792 -s 0 -d 3 -p tcp -e 1040 -c 1 -i 8 -a 1 -x {2.0 3.0 -1 ------- null}
- -t 0.17424 -s 0 -d 1 -p tcp -e 1040 -c 0 -i 13 -a 0 -x {0.0 1.0 6 ------- null}
h -t 0.17424 -s 0 -d 1 -p tcp -e 1040 -c 0 -i 13 -a 0 -x {0.0 1.0 -1 ------- null}
r -t 0.17592 -s 0 -d 1 -p tcp -e 1040 -c 0 -i 11 -a 0 -x {0.0 1.0 4 ------- null}
+ -t 0.17592 -s 1 -d 0 -p ack -e 40 -c 0 -i 15 -a 0 -x {1.0 0.0 4 ------- null}
- -t 0.17592 -s 1 -d 0 -p ack -e 40 -c 0 -i 15 -a 0 -x {1.0 0.0 4 ------- null}
h -t 0.17592 -s 1 -d 0 -p ack -e 40 -c 0 -i 15 -a 0 -x {1.0 0.0 -1 ------- null}
r -t 0.17792 -s 0 -d 3 -p tcp -e 1040 -c 1 -i 7 -a 1 -x {2.0 3.0 1 ------- null}
+ -t 0.17792 -s 3 -d 0 -p ack -e 40 -c 1 -i 16 -a 1 -x {3.0 2.0 1 ------- null}
- -t 0.17792 -s 3 -d 0 -p ack -e 40 -c 1 -i 16 -a 1 -x {3.0 2.0 1 ------- null}
h -t 0.17792 -s 3 -d 0 -p ack -e 40 -c 1 -i 16 -a 1 -x {3.0 2.0 -1 ------- null}
r -t 0.17792 -s 1 -d 0 -p ack -e 40 -c 0 -i 14 -a 0 -x {1.0 0.0 3 ------- null}
+ -t 0.17792 -s 0 -d 1 -p tcp -e 1040 -c 0 -i 17 -a 0 -x {0.0 1.0 7 ------- null}
+ -t 0.17792 -s 0 -d 1 -p tcp -e 1040 -c 0 -i 18 -a 0 -x {0.0 1.0 8 ------- null}
- -t 0.18256 -s 0 -d 1 -p tcp -e 1040 -c 0 -i 17 -a 0 -x {0.0 1.0 7 ------- null}
h -t 0.18256 -s 0 -d 1 -p tcp -e 1040 -c 0 -i 17 -a 0 -x {0.0 1.0 -1 ------- null}
r -t 0.18424 -s 0 -d 1 -p tcp -e 1040 -c 0 -i 12 -a 0 -x {0.0 1.0 5 ------- null}
+ -t 0.18424 -s 1 -d 0 -p ack -e 40 -c 0 -i 19 -a 0 -x {1.0 0.0 5 ------- null}
- -t 0.18424 -s 1 -d 0 -p ack -e 40 -c 0 -i 19 -a 0 -x {1.0 0.0 5 ------- null}
h -t 0.18424 -s 1 -d 0 -p ack -e 40 -c 0 -i 19 -a 0 -x {1.0 0.0 -1 ------- null}
r -t 0.18624 -s 0 -d 3 -p tcp -e 1040 -c 1 -i 8 -a 1 -x {2.0 3.0 2 ------- null}
+ -t 0.18624 -s 3 -d 0 -p ack -e 40 -c 1 -i 20 -a 1 -x {3.0 2.0 2 ------- null}
- -t 0.18624 -s 3 -d 0 -p ack -e 40 -c 1 -i 20 -a 1 -x {3.0 2.0 2 ------- null}
h -t 0.18624 -s 3 -d 0 -p ack -e 40 -c 1 -i 20 -a 1 -x {3.0 2.0 -1 ------- null}
r -t 0.18624 -s 1 -d 0 -p ack -e 40 -c 0 -i 15 -a 0 -x {1.0 0.0 4 ------- null}
+ -t 0.18624 -s 0 -d 1 -p tcp -e 1040 -c 0 -i 21 -a 0 -x {0.0 1.0 9 ------- null}
+ -t 0.18624 -s 0 -d 1 -p tcp -e 1040 -c 0 -i 22 -a 0 -x {0.0 1.0 10 ------- null}
r -t 0.18824 -s 3 -d 0 -p ack -e 40 -c 1 -i 16 -a 1 -x {3.0 2.0 1 ------- null}
+ -t 0.18824 -s 0 -d 2 -p ack -e 40 -c 1 -i 16 -a 1 -x {3.0 2.0 1 ------- null}
- -t 0.18824 -s 0 -d 2 -p ack -e 40 -c 1 -i 16 -a 1 -x {3.0 2.0 1 ------- null}
h -t 0.18824 -s 0 -d 2 -p ack -e 40 -c 1 -i 16 -a 1 -x {3.0 2.0 -1 ------- null}
- -t 0.19088 -s 0 -d 1 -p tcp -e 1040 -c 0 -i 18 -a 0 -x {0.0 1.0 8 ------- null}
h -t 0.19088 -s 0 -d 1 -p tcp -e 1040 -c 0 -i 18 -a 0 -x {0.0 1.0 -1 ------- null}
r -t 0.19256 -s 0 -d 1 -p tcp -e 1040 -c 0 -i 13 -a 0 -x {0.0 1.0 6 ------- null}
+ -t 0.19256 -s 1 -d 0 -p ack -e 40 -c 0 -i 23 -a 0 -x {1.0 0.0 6 ------- null}
- -t 0.19256 -s 1 -d 0 -p ack -e 40 -c 0 -i 23 -a 0 -x {1.0 0.0 6 ------- null}
h -t 0.19256 -s 1 -d 0 -p ack -e 40 -c 0 -i 23 -a 0 -x {1.0 0.0 -1 ------- null}
r -t 0.19456 -s 1 -d 0 -p ack -e 40 -c 0 -i 19 -a 0 -x {1.0 0.0 5 ------- null}
+ -t 0.19456 -s 0 -d 1 -p tcp -e 1040 -c 0 -i 24 -a 0 -x {0.0 1.0 11 ------- null}
+ -t 0.19456 -s 0 -d 1 -p tcp -e 1040 -c 0 -i 25 -a 0 -x {0.0 1.0 12 ------- null}
r -t 0.19656 -s 3 -d 0 -p ack -e 40 -c 1 -i 20 -a 1 -x {3.0 2.0 2 ------- null}
+ -t 0.19656 -s 0 -d 2 -p ack -e 40 -c 1 -i 20 -a 1 -x {3.0 2.0 2 ------- null}
- -t 0.19656 -s 0 -d 2 -p ack -e 40 -c 1 -i 20 -a 1 -x {3.0 2.0 2 ------- null}
h -t 0.19656 -s 0 -d 2 -p ack -e 40 -c 1 -i 20 -a 1 -x {3.0 2.0 -1 ------- null}
r -t 0.19856 -s 0 -d 2 -p ack -e 40 -c 1 -i 16 -a 1 -x {3.0 2.0 1 ------- null}
+ -t 0.19856 -s 2 -d 0 -p tcp -e 1040 -c 1 -i 26 -a 1 -x {2.0 3.0 3 ------- null}
- -t 0.19856 -s 2 -d 0 -p tcp -e 1040 -c 1 -i 26 -a 1 -x {2.0 3.0 3 ------- null}
h -t 0.19856 -s 2 -d 0 -p tcp -e 1040 -c 1 -i 26 -a 1 -x {2.0 3.0 -1 ------- null}
+ -t 0.19856 -s 2 -d 0 -p tcp -e 1040 -c 1 -i 27 -a 1 -x {2.0 3.0 4 ------- null}
- -t 0.1992 -s 0 -d 1 -p tcp -e 1040 -c 0 -i 21 -a 0 -x {0.0 1.0 9 ------- null}
h -t 0.1992 -s 0 -d 1 -p tcp -e 1040 -c 0 -i 21 -a 0 -x {0.0 1.0 -1 ------- null}
r -t 0.20088 -s 0 -d 1 -p tcp -e 1040 -c 0 -i 17 -a 0 -x {0.0 1.0 7 ------- null}
+ -t 0.20088 -s 1 -d 0 -p ack -e 40 -c 0 -i 28 -a 0 -x {1.0 0.0 7 ------- null}
- -t 0.20088 -s 1 -d 0 -p ack -e 40 -c 0 -i 28 -a 0 -x {1.0 0.0 7 ------- null}
h -t 0.20088 -s 1 -d 0 -p ack -e 40 -c 0 -i 28 -a 0 -x {1.0 0.0 -1 ------- null}
r -t 0.20288 -s 1 -d 0 -p ack -e 40 -c 0 -i 23 -a 0 -x {1.0 0.0 6 ------- null}
+ -t 0.20288 -s 0 -d 1 -p tcp -e 1040 -c 0 -i 29 -a 0 -x {0.0 1.0 13 ------- null}
+ -t 0.20288 -s 0 -d 1 -p tcp -e 1040 -c 0 -i 30 -a 0 -x {0.0 1.0 14 ------- null}
r -t 0.20688 -s 0 -d 2 -p ack -e 40 -c 1 -i 20 -a 1 -x {3.0 2.0 2 ------- null}
+ -t 0.20688 -s 2 -d 0 -p tcp -e 1040 -c 1 -i 31 -a 1 -x {2.0 3.0 5 ------- null}
+ -t 0.20688 -s 2 -d 0 -p tcp -e 1040 -c 1 -i 32 -a 1 -x {2.0 3.0 6 ------- null}
- -t 0.20688 -s 2 -d 0 -p tcp -e 1040 -c 1 -i 27 -a 1 -x {2.0 3.0 4 ------- null}
h -t 0.20688 -s 2 -d 0 -p tcp -e 1040 -c 1 -i 27 -a 1 -x {2.0 3.0 -1 ------- null}
- -t 0.20752 -s 0 -d 1 -p tcp -e 1040 -c 0 -i 22 -a 0 -x {0.0 1.0 10 ------- null}
h -t 0.20752 -s 0 -d 1 -p tcp -e 1040 -c 0 -i 22 -a 0 -x {0.0 1.0 -1 ------- null}
r -t 0.2092 -s 0 -d 1 -p tcp -e 1040 -c 0 -i 18 -a 0 -x {0.0 1.0 8 ------- null}
+ -t 0.2092 -s 1 -d 0 -p ack -e 40 -c 0 -i 33 -a 0 -x {1.0 0.0 8 ------- null}
- -t 0.2092 -s 1 -d 0 -p ack -e 40 -c 0 -i 33 -a 0 -x {1.0 0.0 8 ------- null}
h -t 0.2092 -s 1 -d 0 -p ack -e 40 -c 0 -i 33 -a 0 -x {1.0 0.0 -1 ------- null}
r -t 0.2112 -s 1 -d 0 -p ack -e 40 -c 0 -i 28 -a 0 -x {1.0 0.0 7 ------- null}
+ -t 0.2112 -s 0 -d 1 -p tcp -e 1040 -c 0 -i 34 -a 0 -x {0.0 1.0 15 ------- null}
+ -t 0.2112 -s 0 -d 1 -p tcp -e 1040 -c 0 -i 35 -a 0 -x {0.0 1.0 16 ------- null}
- -t 0.2152 -s 2 -d 0 -p tcp -e 1040 -c 1 -i 31 -a 1 -x {2.0 3.0 5 ------- null}
h -t 0.2152 -s 2 -d 0 -p tcp -e 1040 -c 1 -i 31 -a 1 -x {2.0 3.0 -1 ------- null}
- -t 0.21584 -s 0 -d 1 -p tcp -e 1040 -c 0 -i 24 -a 0 -x {0.0 1.0 11 ------- null}
h -t 0.21584 -s 0 -d 1 -p tcp -e 1040 -c 0 -i 24 -a 0 -x {0.0 1.0 -1 ------- null}
r -t 0.21688 -s 2 -d 0 -p tcp -e 1040 -c 1 -i 26 -a 1 -x {2.0 3.0 3 ------- null}
+ -t 0.21688 -s 0 -d 3 -p tcp -e 1040 -c 1 -i 26 -a 1 -x {2.0 3.0 3 ------- null}
- -t 0.21688 -s 0 -d 3 -p tcp -e 1040 -c 1 -i 26 -a 1 -x {2.0 3.0 3 ------- null}
h -t 0.21688 -s 0 -d 3 -p tcp -e 1040 -c 1 -i 26 -a 1 -x {2.0 3.0 -1 ------- null}
r -t 0.21752 -s 0 -d 1 -p tcp -e 1040 -c 0 -i 21 -a 0 -x {0.0 1.0 9 ------- null}
+ -t 0.21752 -s 1 -d 0 -p ack -e 40 -c 0 -i 36 -a 0 -x {1.0 0.0 9 ------- null}
- -t 0.21752 -s 1 -d 0 -p ack -e 40 -c 0 -i 36 -a 0 -x {1.0 0.0 9 ------- null}
h -t 0.21752 -s 1 -d 0 -p ack -e 40 -c 0 -i 36 -a 0 -x {1.0 0.0 -1 ------- null}
r -t 0.21952 -s 1 -d 0 -p ack -e 40 -c 0 -i 33 -a 0 -x {1.0 0.0 8 ------- null}
+ -t 0.21952 -s 0 -d 1 -p tcp -e 1040 -c 0 -i 37 -a 0 -x {0.0 1.0 17 ------- null}
+ -t 0.21952 -s 0 -d 1 -p tcp -e 1040 -c 0 -i 38 -a 0 -x {0.0 1.0 18 ------- null}
- -t 0.22352 -s 2 -d 0 -p tcp -e 1040 -c 1 -i 32 -a 1 -x {2.0 3.0 6 ------- null}
h -t 0.22352 -s 2 -d 0 -p tcp -e 1040 -c 1 -i 32 -a 1 -x {2.0 3.0 -1 ------- null}
- -t 0.22416 -s 0 -d 1 -p tcp -e 1040 -c 0 -i 25 -a 0 -x {0.0 1.0 12 ------- null}
h -t 0.22416 -s 0 -d 1 -p tcp -e 1040 -c 0 -i 25 -a 0 -x {0.0 1.0 -1 ------- null}
r -t 0.2252 -s 2 -d 0 -p tcp -e 1040 -c 1 -i 27 -a 1 -x {2.0 3.0 4 ------- null}
+ -t 0.2252 -s 0 -d 3 -p tcp -e 1040 -c 1 -i 27 -a 1 -x {2.0 3.0 4 ------- null}
- -t 0.2252 -s 0 -d 3 -p tcp -e 1040 -c 1 -i 27 -a 1 -x {2.0 3.0 4 ------- null}
h -t 0.2252 -s 0 -d 3 -p tcp -e 1040 -c 1 -i 27 -a 1 -x {2.0 3.0 -1 ------- null}
r -t 0.22584 -s 0 -d 1 -p tcp -e 1040 -c 0 -i 22 -a 0 -x {0.0 1.0 10 ------- null}
+ -t 0.22584 -s 1 -d 0 -p ack -e 40 -c 0 -i 39 -a 0 -x {1.0 0.0 10 ------- null}
- -t 0.22584 -s 1 -d 0 -p ack -e 40 -c 0 -i 39 -a 0 -x {1.0 0.0 10 ------- null}
h -t 0.22584 -s 1 -d 0 -p ack -e 40 -c 0 -i 39 -a 0 -x {1.0 0.0 -1 ------- null}
r -t 0.22784 -s 1 -d 0 -p ack -e 40 -c 0 -i 36 -a 0 -x {1.0 0.0 9 ------- null}
+ -t 0.22784 -s 0 -d 1 -p tcp -e 1040 -c 0 -i 40 -a 0 -x {0.0 1.0 19 ------- null}
+ -t 0.22784 -s 0 -d 1 -p tcp -e 1040 -c 0 -i 41 -a 0 -x {0.0 1.0 20 ------- null}
- -t 0.23248 -s 0 -d 1 -p tcp -e 1040 -c 0 -i 29 -a 0 -x {0.0 1.0 13 ------- null}
h -t 0.23248 -s 0 -d 1 -p tcp -e 1040 -c 0 -i 29 -a 0 -x {0.0 1.0 -1 ------- null}
r -t 0.23352 -s 2 -d 0 -p tcp -e 1040 -c 1 -i 31 -a 1 -x {2.0 3.0 5 ------- null}
+ -t 0.23352 -s 0 -d 3 -p tcp -e 1040 -c 1 -i 31 -a 1 -x {2.0 3.0 5 ------- null}
- -t 0.23352 -s 0 -d 3 -p tcp -e 1040 -c 1 -i 31 -a 1 -x {2.0 3.0 5 ------- null}
h -t 0.23352 -s 0 -d 3 -p tcp -e 1040 -c 1 -i 31 -a 1 -x {2.0 3.0 -1 ------- null}
r -t 0.23416 -s 0 -d 1 -p tcp -e 1040 -c 0 -i 24 -a 0 -x {0.0 1.0 11 ------- null}
+ -t 0.23416 -s 1 -d 0 -p ack -e 40 -c 0 -i 42 -a 0 -x {1.0 0.0 11 ------- null}
- -t 0.23416 -s 1 -d 0 -p ack -e 40 -c 0 -i 42 -a 0 -x {1.0 0.0 11 ------- null}
h -t 0.23416 -s 1 -d 0 -p ack -e 40 -c 0 -i 42 -a 0 -x {1.0 0.0 -1 ------- null}
r -t 0.2352 -s 0 -d 3 -p tcp -e 1040 -c 1 -i 26 -a 1 -x {2.0 3.0 3 ------- null}
+ -t 0.2352 -s 3 -d 0 -p ack -e 40 -c 1 -i 43 -a 1 -x {3.0 2.0 3 ------- null}
- -t 0.2352 -s 3 -d 0 -p ack -e 40 -c 1 -i 43 -a 1 -x {3.0 2.0 3 ------- null}
h -t 0.2352 -s 3 -d 0 -p ack -e 40 -c 1 -i 43 -a 1 -x {3.0 2.0 -1 ------- null}
r -t 0.23616 -s 1 -d 0 -p ack -e 40 -c 0 -i 39 -a 0 -x {1.0 0.0 10 ------- null}
+ -t 0.23616 -s 0 -d 1 -p tcp -e 1040 -c 0 -i 44 -a 0 -x {0.0 1.0 21 ------- null}
+ -t 0.23616 -s 0 -d 1 -p tcp -e 1040 -c 0 -i 45 -a 0 -x {0.0 1.0 22 ------- null}
- -t 0.2408 -s 0 -d 1 -p tcp -e 1040 -c 0 -i 30 -a 0 -x {0.0 1.0 14 ------- null}
h -t 0.2408 -s 0 -d 1 -p tcp -e 1040 -c 0 -i 30 -a 0 -x {0.0 1.0 -1 ------- null}
r -t 0.24184 -s 2 -d 0 -p tcp -e 1040 -c 1 -i 32 -a 1 -x {2.0 3.0 6 ------- null}
+ -t 0.24184 -s 0 -d 3 -p tcp -e 1040 -c 1 -i 32 -a 1 -x {2.0 3.0 6 ------- null}
- -t 0.24184 -s 0 -d 3 -p tcp -e 1040 -c 1 -i 32 -a 1 -x {2.0 3.0 6 ------- null}
h -t 0.24184 -s 0 -d 3 -p tcp -e 1040 -c 1 -i 32 -a 1 -x {2.0 3.0 -1 ------- null}
r -t 0.24248 -s 0 -d 1 -p tcp -e 1040 -c 0 -i 25 -a 0 -x {0.0 1.0 12 ------- null}
+ -t 0.24248 -s 1 -d 0 -p ack -e 40 -c 0 -i 46 -a 0 -x {1.0 0.0 12 ------- null}
- -t 0.24248 -s 1 -d 0 -p ack -e 40 -c 0 -i 46 -a 0 -x {1.0 0.0 12 ------- null}
h -t 0.24248 -s 1 -d 0 -p ack -e 40 -c 0 -i 46 -a 0 -x {1.0 0.0 -1 ------- null}
r -t 0.24352 -s 0 -d 3 -p tcp -e 1040 -c 1 -i 27 -a 1 -x {2.0 3.0 4 ------- null}
+ -t 0.24352 -s 3 -d 0 -p ack -e 40 -c 1 -i 47 -a 1 -x {3.0 2.0 4 ------- null}
- -t 0.24352 -s 3 -d 0 -p ack -e 40 -c 1 -i 47 -a 1 -x {3.0 2.0 4 ------- null}
h -t 0.24352 -s 3 -d 0 -p ack -e 40 -c 1 -i 47 -a 1 -x {3.0 2.0 -1 ------- null}
r -t 0.24448 -s 1 -d 0 -p ack -e 40 -c 0 -i 42 -a 0 -x {1.0 0.0 11 ------- null}
+ -t 0.24448 -s 0 -d 1 -p tcp -e 1040 -c 0 -i 48 -a 0 -x {0.0 1.0 23 ------- null}
+ -t 0.24448 -s 0 -d 1 -p tcp -e 1040 -c 0 -i 49 -a 0 -x {0.0 1.0 24 ------- null}
r -t 0.24552 -s 3 -d 0 -p ack -e 40 -c 1 -i 43 -a 1 -x {3.0 2.0 3 ------- null}
+ -t 0.24552 -s 0 -d 2 -p ack -e 40 -c 1 -i 43 -a 1 -x {3.0 2.0 3 ------- null}
- -t 0.24552 -s 0 -d 2 -p ack -e 40 -c 1 -i 43 -a 1 -x {3.0 2.0 3 ------- null}
h -t 0.24552 -s 0 -d 2 -p ack -e 40 -c 1 -i 43 -a 1 -x {3.0 2.0 -1 ------- null}
- -t 0.24912 -s 0 -d 1 -p tcp -e 1040 -c 0 -i 34 -a 0 -x {0.0 1.0 15 ------- null}
h -t 0.24912 -s 0 -d 1 -p tcp -e 1040 -c 0 -i 34 -a 0 -x {0.0 1.0 -1 ------- null}
r -t 0.2508 -s 0 -d 1 -p tcp -e 1040 -c 0 -i 29 -a 0 -x {0.0 1.0 13 ------- null}
+ -t 0.2508 -s 1 -d 0 -p ack -e 40 -c 0 -i 50 -a 0 -x {1.0 0.0 13 ------- null}
- -t 0.2508 -s 1 -d 0 -p ack -e 40 -c 0 -i 50 -a 0 -x {1.0 0.0 13 ------- null}
h -t 0.2508 -s 1 -d 0 -p ack -e 40 -c 0 -i 50 -a 0 -x {1.0 0.0 -1 ------- null}
r -t 0.25184 -s 0 -d 3 -p tcp -e 1040 -c 1 -i 31 -a 1 -x {2.0 3.0 5 ------- null}
+ -t 0.25184 -s 3 -d 0 -p ack -e 40 -c 1 -i 51 -a 1 -x {3.0 2.0 5 ------- null}
- -t 0.25184 -s 3 -d 0 -p ack -e 40 -c 1 -i 51 -a 1 -x {3.0 2.0 5 ------- null}
h -t 0.25184 -s 3 -d 0 -p ack -e 40 -c 1 -i 51 -a 1 -x {3.0 2.0 -1 ------- null}
r -t 0.2528 -s 1 -d 0 -p ack -e 40 -c 0 -i 46 -a 0 -x {1.0 0.0 12 ------- null}
+ -t 0.2528 -s 0 -d 1 -p tcp -e 1040 -c 0 -i 52 -a 0 -x {0.0 1.0 25 ------- null}
+ -t 0.2528 -s 0 -d 1 -p tcp -e 1040 -c 0 -i 53 -a 0 -x {0.0 1.0 26 ------- null}
r -t 0.25384 -s 3 -d 0 -p ack -e 40 -c 1 -i 47 -a 1 -x {3.0 2.0 4 ------- null}
+ -t 0.25384 -s 0 -d 2 -p ack -e 40 -c 1 -i 47 -a 1 -x {3.0 2.0 4 ------- null}
- -t 0.25384 -s 0 -d 2 -p ack -e 40 -c 1 -i 47 -a 1 -x {3.0 2.0 4 ------- null}
h -t 0.25384 -s 0 -d 2 -p ack -e 40 -c 1 -i 47 -a 1 -x {3.0 2.0 -1 ------- null}
r -t 0.25584 -s 0 -d 2 -p ack -e 40 -c 1 -i 43 -a 1 -x {3.0 2.0 3 ------- null}
+ -t 0.25584 -s 2 -d 0 -p tcp -e 1040 -c 1 -i 54 -a 1 -x {2.0 3.0 7 ------- null}
- -t 0.25584 -s 2 -d 0 -p tcp -e 1040 -c 1 -i 54 -a 1 -x {2.0 3.0 7 ------- null}
h -t 0.25584 -s 2 -d 0 -p tcp -e 1040 -c 1 -i 54 -a 1 -x {2.0 3.0 -1 ------- null}
+ -t 0.25584 -s 2 -d 0 -p tcp -e 1040 -c 1 -i 55 -a 1 -x {2.0 3.0 8 ------- null}
- -t 0.25744 -s 0 -d 1 -p tcp -e 1040 -c 0 -i 35 -a 0 -x {0.0 1.0 16 ------- null}
h -t 0.25744 -s 0 -d 1 -p tcp -e 1040 -c 0 -i 35 -a 0 -x {0.0 1.0 -1 ------- null}
r -t 0.25912 -s 0 -d 1 -p tcp -e 1040 -c 0 -i 30 -a 0 -x {0.0 1.0 14 ------- null}
+ -t 0.25912 -s 1 -d 0 -p ack -e 40 -c 0 -i 56 -a 0 -x {1.0 0.0 14 ------- null}
- -t 0.25912 -s 1 -d 0 -p ack -e 40 -c 0 -i 56 -a 0 -x {1.0 0.0 14 ------- null}
h -t 0.25912 -s 1 -d 0 -p ack -e 40 -c 0 -i 56 -a 0 -x {1.0 0.0 -1 ------- null}
r -t 0.26016 -s 0 -d 3 -p tcp -e 1040 -c 1 -i 32 -a 1 -x {2.0 3.0 6 ------- null}
+ -t 0.26016 -s 3 -d 0 -p ack -e 40 -c 1 -i 57 -a 1 -x {3.0 2.0 6 ------- null}
- -t 0.26016 -s 3 -d 0 -p ack -e 40 -c 1 -i 57 -a 1 -x {3.0 2.0 6 ------- null}
h -t 0.26016 -s 3 -d 0 -p ack -e 40 -c 1 -i 57 -a 1 -x {3.0 2.0 -1 ------- null}
r -t 0.26112 -s 1 -d 0 -p ack -e 40 -c 0 -i 50 -a 0 -x {1.0 0.0 13 ------- null}
+ -t 0.26112 -s 0 -d 1 -p tcp -e 1040 -c 0 -i 58 -a 0 -x {0.0 1.0 27 ------- null}
+ -t 0.26112 -s 0 -d 1 -p tcp -e 1040 -c 0 -i 59 -a 0 -x {0.0 1.0 28 ------- null}
r -t 0.26216 -s 3 -d 0 -p ack -e 40 -c 1 -i 51 -a 1 -x {3.0 2.0 5 ------- null}
+ -t 0.26216 -s 0 -d 2 -p ack -e 40 -c 1 -i 51 -a 1 -x {3.0 2.0 5 ------- null}
- -t 0.26216 -s 0 -d 2 -p ack -e 40 -c 1 -i 51 -a 1 -x {3.0 2.0 5 ------- null}
h -t 0.26216 -s 0 -d 2 -p ack -e 40 -c 1 -i 51 -a 1 -x {3.0 2.0 -1 ------- null}
r -t 0.26416 -s 0 -d 2 -p ack -e 40 -c 1 -i 47 -a 1 -x {3.0 2.0 4 ------- null}
+ -t 0.26416 -s 2 -d 0 -p tcp -e 1040 -c 1 -i 60 -a 1 -x {2.0 3.0 9 ------- null}
+ -t 0.26416 -s 2 -d 0 -p tcp -e 1040 -c 1 -i 61 -a 1 -x {2.0 3.0 10 ------- null}
- -t 0.26416 -s 2 -d 0 -p tcp -e 1040 -c 1 -i 55 -a 1 -x {2.0 3.0 8 ------- null}
h -t 0.26416 -s 2 -d 0 -p tcp -e 1040 -c 1 -i 55 -a 1 -x {2.0 3.0 -1 ------- null}
- -t 0.26576 -s 0 -d 1 -p tcp -e 1040 -c 0 -i 37 -a 0 -x {0.0 1.0 17 ------- null}
h -t 0.26576 -s 0 -d 1 -p tcp -e 1040 -c 0 -i 37 -a 0 -x {0.0 1.0 -1 ------- null}
r -t 0.26744 -s 0 -d 1 -p tcp -e 1040 -c 0 -i 34 -a 0 -x {0.0 1.0 15 ------- null}
+ -t 0.26744 -s 1 -d 0 -p ack -e 40 -c 0 -i 62 -a 0 -x {1.0 0.0 15 ------- null}
- -t 0.26744 -s 1 -d 0 -p ack -e 40 -c 0 -i 62 -a 0 -x {1.0 0.0 15 ------- null}
h -t 0.26744 -s 1 -d 0 -p ack -e 40 -c 0 -i 62 -a 0 -x {1.0 0.0 -1 ------- null}
r -t 0.26944 -s 1 -d 0 -p ack -e 40 -c 0 -i 56 -a 0 -x {1.0 0.0 14 ------- null}
+ -t 0.26944 -s 0 -d 1 -p tcp -e 1040 -c 0 -i 63 -a 0 -x {0.0 1.0 29 ------- null}
+ -t 0.26944 -s 0 -d 1 -p tcp -e 1040 -c 0 -i 64 -a 0 -x {0.0 1.0 30 ------- null}
r -t 0.27048 -s 3 -d 0 -p ack -e 40 -c 1 -i 57 -a 1 -x {3.0 2.0 6 ------- null}
+ -t 0.27048 -s 0 -d 2 -p ack -e 40 -c 1 -i 57 -a 1 -x {3.0 2.0 6 ------- null}
- -t 0.27048 -s 0 -d 2 -p ack -e 40 -c 1 -i 57 -a 1 -x {3.0 2.0 6 ------- null}
h -t 0.27048 -s 0 -d 2 -p ack -e 40 -c 1 -i 57 -a 1 -x {3.0 2.0 -1 ------- null}
r -t 0.27248 -s 0 -d 2 -p ack -e 40 -c 1 -i 51 -a 1 -x {3.0 2.0 5 ------- null}
+ -t 0.27248 -s 2 -d 0 -p tcp -e 1040 -c 1 -i 65 -a 1 -x {2.0 3.0 11 ------- null}
+ -t 0.27248 -s 2 -d 0 -p tcp -e 1040 -c 1 -i 66 -a 1 -x {2.0 3.0 12 ------- null}
- -t 0.27248 -s 2 -d 0 -p tcp -e 1040 -c 1 -i 60 -a 1 -x {2.0 3.0 9 ------- null}
h -t 0.27248 -s 2 -d 0 -p tcp -e 1040 -c 1 -i 60 -a 1 -x {2.0 3.0 -1 ------- null}
- -t 0.27408 -s 0 -d 1 -p tcp -e 1040 -c 0 -i 38 -a 0 -x {0.0 1.0 18 ------- null}
h -t 0.27408 -s 0 -d 1 -p tcp -e 1040 -c 0 -i 38 -a 0 -x {0.0 1.0 -1 ------- null}
r -t 0.27416 -s 2 -d 0 -p tcp -e 1040 -c 1 -i 54 -a 1 -x {2.0 3.0 7 ------- null}
+ -t 0.27416 -s 0 -d 3 -p tcp -e 1040 -c 1 -i 54 -a 1 -x {2.0 3.0 7 ------- null}
- -t 0.27416 -s 0 -d 3 -p tcp -e 1040 -c 1 -i 54 -a 1 -x {2.0 3.0 7 ------- null}
h -t 0.27416 -s 0 -d 3 -p tcp -e 1040 -c 1 -i 54 -a 1 -x {2.0 3.0 -1 ------- null}
r -t 0.27576 -s 0 -d 1 -p tcp -e 1040 -c 0 -i 35 -a 0 -x {0.0 1.0 16 ------- null}
+ -t 0.27576 -s 1 -d 0 -p ack -e 40 -c 0 -i 67 -a 0 -x {1.0 0.0 16 ------- null}
- -t 0.27576 -s 1 -d 0 -p ack -e 40 -c 0 -i 67 -a 0 -x {1.0 0.0 16 ------- null}
h -t 0.27576 -s 1 -d 0 -p ack -e 40 -c 0 -i 67 -a 0 -x {1.0 0.0 -1 ------- null}
r -t 0.27776 -s 1 -d 0 -p ack -e 40 -c 0 -i 62 -a 0 -x {1.0 0.0 15 ------- null}
+ -t 0.27776 -s 0 -d 1 -p tcp -e 1040 -c 0 -i 68 -a 0 -x {0.0 1.0 31 ------- null}
+ -t 0.27776 -s 0 -d 1 -p tcp -e 1040 -c 0 -i 69 -a 0 -x {0.0 1.0 32 ------- null}
r -t 0.2808 -s 0 -d 2 -p ack -e 40 -c 1 -i 57 -a 1 -x {3.0 2.0 6 ------- null}
+ -t 0.2808 -s 2 -d 0 -p tcp -e 1040 -c 1 -i 70 -a 1 -x {2.0 3.0 13 ------- null}
+ -t 0.2808 -s 2 -d 0 -p tcp -e 1040 -c 1 -i 71 -a 1 -x {2.0 3.0 14 ------- null}
- -t 0.2808 -s 2 -d 0 -p tcp -e 1040 -c 1 -i 61 -a 1 -x {2.0 3.0 10 ------- null}
h -t 0.2808 -s 2 -d 0 -p tcp -e 1040 -c 1 -i 61 -a 1 -x {2.0 3.0 -1 ------- null}
- -t 0.2824 -s 0 -d 1 -p tcp -e 1040 -c 0 -i 40 -a 0 -x {0.0 1.0 19 ------- null}
h -t 0.2824 -s 0 -d 1 -p tcp -e 1040 -c 0 -i 40 -a 0 -x {0.0 1.0 -1 ------- null}
r -t 0.28248 -s 2 -d 0 -p tcp -e 1040 -c 1 -i 55 -a 1 -x {2.0 3.0 8 ------- null}
+ -t 0.28248 -s 0 -d 3 -p tcp -e 1040 -c 1 -i 55 -a 1 -x {2.0 3.0 8 ------- null}
- -t 0.28248 -s 0 -d 3 -p tcp -e 1040 -c 1 -i 55 -a 1 -x {2.0 3.0 8 ------- null}
h -t 0.28248 -s 0 -d 3 -p tcp -e 1040 -c 1 -i 55 -a 1 -x {2.0 3.0 -1 ------- null}
r -t 0.28408 -s 0 -d 1 -p tcp -e 1040 -c 0 -i 37 -a 0 -x {0.0 1.0 17 ------- null}
+ -t 0.28408 -s 1 -d 0 -p ack -e 40 -c 0 -i 72 -a 0 -x {1.0 0.0 17 ------- null}
- -t 0.28408 -s 1 -d 0 -p ack -e 40 -c 0 -i 72 -a 0 -x {1.0 0.0 17 ------- null}
h -t 0.28408 -s 1 -d 0 -p ack -e 40 -c 0 -i 72 -a 0 -x {1.0 0.0 -1 ------- null}
r -t 0.28608 -s 1 -d 0 -p ack -e 40 -c 0 -i 67 -a 0 -x {1.0 0.0 16 ------- null}
+ -t 0.28608 -s 0 -d 1 -p tcp -e 1040 -c 0 -i 73 -a 0 -x {0.0 1.0 33 ------- null}
+ -t 0.28608 -s 0 -d 1 -p tcp -e 1040 -c 0 -i 74 -a 0 -x {0.0 1.0 34 ------- null}
- -t 0.28912 -s 2 -d 0 -p tcp -e 1040 -c 1 -i 65 -a 1 -x {2.0 3.0 11 ------- null}
h -t 0.28912 -s 2 -d 0 -p tcp -e 1040 -c 1 -i 65 -a 1 -x {2.0 3.0 -1 ------- null}
- -t 0.29072 -s 0 -d 1 -p tcp -e 1040 -c 0 -i 41 -a 0 -x {0.0 1.0 20 ------- null}
h -t 0.29072 -s 0 -d 1 -p tcp -e 1040 -c 0 -i 41 -a 0 -x {0.0 1.0 -1 ------- null}
r -t 0.2908 -s 2 -d 0 -p tcp -e 1040 -c 1 -i 60 -a 1 -x {2.0 3.0 9 ------- null}
+ -t 0.2908 -s 0 -d 3 -p tcp -e 1040 -c 1 -i 60 -a 1 -x {2.0 3.0 9 ------- null}
- -t 0.2908 -s 0 -d 3 -p tcp -e 1040 -c 1 -i 60 -a 1 -x {2.0 3.0 9 ------- null}
h -t 0.2908 -s 0 -d 3 -p tcp -e 1040 -c 1 -i 60 -a 1 -x {2.0 3.0 -1 ------- null}
r -t 0.2924 -s 0 -d 1 -p tcp -e 1040 -c 0 -i 38 -a 0 -x {0.0 1.0 18 ------- null}
+ -t 0.2924 -s 1 -d 0 -p ack -e 40 -c 0 -i 75 -a 0 -x {1.0 0.0 18 ------- null}
- -t 0.2924 -s 1 -d 0 -p ack -e 40 -c 0 -i 75 -a 0 -x {1.0 0.0 18 ------- null}
h -t 0.2924 -s 1 -d 0 -p ack -e 40 -c 0 -i 75 -a 0 -x {1.0 0.0 -1 ------- null}
r -t 0.29248 -s 0 -d 3 -p tcp -e 1040 -c 1 -i 54 -a 1 -x {2.0 3.0 7 ------- null}
+ -t 0.29248 -s 3 -d 0 -p ack -e 40 -c 1 -i 76 -a 1 -x {3.0 2.0 7 ------- null}
- -t 0.29248 -s 3 -d 0 -p ack -e 40 -c 1 -i 76 -a 1 -x {3.0 2.0 7 ------- null}
h -t 0.29248 -s 3 -d 0 -p ack -e 40 -c 1 -i 76 -a 1 -x {3.0 2.0 -1 ------- null}
r -t 0.2944 -s 1 -d 0 -p ack -e 40 -c 0 -i 72 -a 0 -x {1.0 0.0 17 ------- null}
+ -t 0.2944 -s 0 -d 1 -p tcp -e 1040 -c 0 -i 77 -a 0 -x {0.0 1.0 35 ------- null}
+ -t 0.2944 -s 0 -d 1 -p tcp -e 1040 -c 0 -i 78 -a 0 -x {0.0 1.0 36 ------- null}
- -t 0.29744 -s 2 -d 0 -p tcp -e 1040 -c 1 -i 66 -a 1 -x {2.0 3.0 12 ------- null}
h -t 0.29744 -s 2 -d 0 -p tcp -e 1040 -c 1 -i 66 -a 1 -x {2.0 3.0 -1 ------- null}
- -t 0.29904 -s 0 -d 1 -p tcp -e 1040 -c 0 -i 44 -a 0 -x {0.0 1.0 21 ------- null}
h -t 0.29904 -s 0 -d 1 -p tcp -e 1040 -c 0 -i 44 -a 0 -x {0.0 1.0 -1 ------- null}
r -t 0.29912 -s 2 -d 0 -p tcp -e 1040 -c 1 -i 61 -a 1 -x {2.0 3.0 10 ------- null}
+ -t 0.29912 -s 0 -d 3 -p tcp -e 1040 -c 1 -i 61 -a 1 -x {2.0 3.0 10 ------- null}
- -t 0.29912 -s 0 -d 3 -p tcp -e 1040 -c 1 -i 61 -a 1 -x {2.0 3.0 10 ------- null}
h -t 0.29912 -s 0 -d 3 -p tcp -e 1040 -c 1 -i 61 -a 1 -x {2.0 3.0 -1 ------- null}
r -t 0.30072 -s 0 -d 1 -p tcp -e 1040 -c 0 -i 40 -a 0 -x {0.0 1.0 19 ------- null}
+ -t 0.30072 -s 1 -d 0 -p ack -e 40 -c 0 -i 79 -a 0 -x {1.0 0.0 19 ------- null}
- -t 0.30072 -s 1 -d 0 -p ack -e 40 -c 0 -i 79 -a 0 -x {1.0 0.0 19 ------- null}
h -t 0.30072 -s 1 -d 0 -p ack -e 40 -c 0 -i 79 -a 0 -x {1.0 0.0 -1 ------- null}
r -t 0.3008 -s 0 -d 3 -p tcp -e 1040 -c 1 -i 55 -a 1 -x {2.0 3.0 8 ------- null}
+ -t 0.3008 -s 3 -d 0 -p ack -e 40 -c 1 -i 80 -a 1 -x {3.0 2.0 8 ------- null}
- -t 0.3008 -s 3 -d 0 -p ack -e 40 -c 1 -i 80 -a 1 -x {3.0 2.0 8 ------- null}
h -t 0.3008 -s 3 -d 0 -p ack -e 40 -c 1 -i 80 -a 1 -x {3.0 2.0 -1 ------- null}
r -t 0.30272 -s 1 -d 0 -p ack -e 40 -c 0 -i 75 -a 0 -x {1.0 0.0 18 ------- null}
+ -t 0.30272 -s 0 -d 1 -p tcp -e 1040 -c 0 -i 81 -a 0 -x {0.0 1.0 37 ------- null}
+ -t 0.30272 -s 0 -d 1 -p tcp -e 1040 -c 0 -i 82 -a 0 -x {0.0 1.0 38 ------- null}
r -t 0.3028 -s 3 -d 0 -p ack -e 40 -c 1 -i 76 -a 1 -x {3.0 2.0 7 ------- null}
+ -t 0.3028 -s 0 -d 2 -p ack -e 40 -c 1 -i 76 -a 1 -x {3.0 2.0 7 ------- null}
- -t 0.3028 -s 0 -d 2 -p ack -e 40 -c 1 -i 76 -a 1 -x {3.0 2.0 7 ------- null}
h -t 0.3028 -s 0 -d 2 -p ack -e 40 -c 1 -i 76 -a 1 -x {3.0 2.0 -1 ------- null}
- -t 0.30576 -s 2 -d 0 -p tcp -e 1040 -c 1 -i 70 -a 1 -x {2.0 3.0 13 ------- null}
h -t 0.30576 -s 2 -d 0 -p tcp -e 1040 -c 1 -i 70 -a 1 -x {2.0 3.0 -1 ------- null}
- -t 0.30736 -s 0 -d 1 -p tcp -e 1040 -c 0 -i 45 -a 0 -x {0.0 1.0 22 ------- null}
h -t 0.30736 -s 0 -d 1 -p tcp -e 1040 -c 0 -i 45 -a 0 -x {0.0 1.0 -1 ------- null}
r -t 0.30744 -s 2 -d 0 -p tcp -e 1040 -c 1 -i 65 -a 1 -x {2.0 3.0 11 ------- null}
+ -t 0.30744 -s 0 -d 3 -p tcp -e 1040 -c 1 -i 65 -a 1 -x {2.0 3.0 11 ------- null}
- -t 0.30744 -s 0 -d 3 -p tcp -e 1040 -c 1 -i 65 -a 1 -x {2.0 3.0 11 ------- null}
h -t 0.30744 -s 0 -d 3 -p tcp -e 1040 -c 1 -i 65 -a 1 -x {2.0 3.0 -1 ------- null}
r -t 0.30904 -s 0 -d 1 -p tcp -e 1040 -c 0 -i 41 -a 0 -x {0.0 1.0 20 ------- null}
+ -t 0.30904 -s 1 -d 0 -p ack -e 40 -c 0 -i 83 -a 0 -x {1.0 0.0 20 ------- null}
- -t 0.30904 -s 1 -d 0 -p ack -e 40 -c 0 -i 83 -a 0 -x {1.0 0.0 20 ------- null}
h -t 0.30904 -s 1 -d 0 -p ack -e 40 -c 0 -i 83 -a 0 -x {1.0 0.0 -1 ------- null}
r -t 0.30912 -s 0 -d 3 -p tcp -e 1040 -c 1 -i 60 -a 1 -x {2.0 3.0 9 ------- null}
+ -t 0.30912 -s 3 -d 0 -p ack -e 40 -c 1 -i 84 -a 1 -x {3.0 2.0 9 ------- null}
- -t 0.30912 -s 3 -d 0 -p ack -e 40 -c 1 -i 84 -a 1 -x {3.0 2.0 9 ------- null}
h -t 0.30912 -s 3 -d 0 -p ack -e 40 -c 1 -i 84 -a 1 -x {3.0 2.0 -1 ------- null}
r -t 0.31104 -s 1 -d 0 -p ack -e 40 -c 0 -i 79 -a 0 -x {1.0 0.0 19 ------- null}
+ -t 0.31104 -s 0 -d 1 -p tcp -e 1040 -c 0 -i 85 -a 0 -x {0.0 1.0 39 ------- null}